 Entering Gaussian System, Link 0=g16
 Input=input.gjf
 Output=cores48.log
 Initial command:
 /nopt/nrel/apps/gaussian/G16.sandy/g16/l1.exe "/scratch/cchang/G16bench/Gau-60351.inp" -scrdir="/scratch/cchang/G16bench/"
 Default linda workers: n1010,n1009
 Default is to use  24 SMP processors on each worker.
 Entering Link 1 = /nopt/nrel/apps/gaussian/G16.sandy/g16/l1.exe PID=     60352.
  
 Copyright (c) 1988,1990,1992,1993,1995,1998,2003,2009,2016,
            Gaussian, Inc.  All Rights Reserved.
  
 This is part of the Gaussian(R) 16 program.  It is based on
 the Gaussian(R) 09 system (copyright 2009, Gaussian, Inc.),
 the Gaussian(R) 03 system (copyright 2003, Gaussian, Inc.),
 the Gaussian(R) 98 system (copyright 1998, Gaussian, Inc.),
 the Gaussian(R) 94 system (copyright 1995, Gaussian, Inc.),
 the Gaussian 92(TM) system (copyright 1992, Gaussian, Inc.),
 the Gaussian 90(TM) system (copyright 1990, Gaussian, Inc.),
 the Gaussian 88(TM) system (copyright 1988, Gaussian, Inc.),
 the Gaussian 86(TM) system (copyright 1986, Carnegie Mellon
 University), and the Gaussian 82(TM) system (copyright 1983,
 Carnegie Mellon University). Gaussian is a federally registered
 trademark of Gaussian, Inc.
  
 This software contains proprietary and confidential information,
 including trade secrets, belonging to Gaussian, Inc.
  
 This software is provided under written license and may be
 used, copied, transmitted, or stored only in accord with that
 written license.
  
 The following legend is applicable only to US Government
 contracts under FAR:
  
                    RESTRICTED RIGHTS LEGEND
  
 Use, reproduction and disclosure by the US Government is
 subject to restrictions as set forth in subparagraphs (a)
 and (c) of the Commercial Computer Software - Restricted
 Rights clause in FAR 52.227-19.
  
 Gaussian, Inc.
 340 Quinnipiac St., Bldg. 40, Wallingford CT 06492
  
  
 ---------------------------------------------------------------
 Warning -- This program may not be used in any manner that
 competes with the business of Gaussian, Inc. or will provide
 assistance to any competitor of Gaussian, Inc.  The licensee
 of this program is prohibited from giving any competitor of
 Gaussian, Inc. access to this program.  By using this program,
 the user acknowledges that Gaussian, Inc. is engaged in the
 business of creating and licensing software in the field of
 computational chemistry and represents and warrants to the
 licensee that it is not a competitor of Gaussian, Inc. and that
 it will not use this program in any manner prohibited above.
 ---------------------------------------------------------------
  

 Cite this work as:
 Gaussian 16, Revision A.03,
 M. J. Frisch, G. W. Trucks, H. B. Schlegel, G. E. Scuseria, 
 M. A. Robb, J. R. Cheeseman, G. Scalmani, V. Barone, 
 G. A. Petersson, H. Nakatsuji, X. Li, M. Caricato, A. V. Marenich, 
 J. Bloino, B. G. Janesko, R. Gomperts, B. Mennucci, H. P. Hratchian, 
 J. V. Ortiz, A. F. Izmaylov, J. L. Sonnenberg, D. Williams-Young, 
 F. Ding, F. Lipparini, F. Egidi, J. Goings, B. Peng, A. Petrone, 
 T. Henderson, D. Ranasinghe, V. G. Zakrzewski, J. Gao, N. Rega, 
 G. Zheng, W. Liang, M. Hada, M. Ehara, K. Toyota, R. Fukuda, 
 J. Hasegawa, M. Ishida, T. Nakajima, Y. Honda, O. Kitao, H. Nakai, 
 T. Vreven, K. Throssell, J. A. Montgomery, Jr., J. E. Peralta, 
 F. Ogliaro, M. J. Bearpark, J. J. Heyd, E. N. Brothers, K. N. Kudin, 
 V. N. Staroverov, T. A. Keith, R. Kobayashi, J. Normand, 
 K. Raghavachari, A. P. Rendell, J. C. Burant, S. S. Iyengar, 
 J. Tomasi, M. Cossi, J. M. Millam, M. Klene, C. Adamo, R. Cammi, 
 J. W. Ochterski, R. L. Martin, K. Morokuma, O. Farkas, 
 J. B. Foresman, and D. J. Fox, Gaussian, Inc., Wallingford CT, 2016.
 
 ******************************************
 Gaussian 16:  ES64L-G16RevA.03 25-Dec-2016
                27-Sep-2017 
 ******************************************
 SetLPE:  input flags="-opt "Tsnet.Node.lindarsharg: ssh" "
 SetLPE:    new flags="-opt "Tsnet.Node.lindarsharg: ssh" -opt 'Tsnet.Node.lindarsharg: ssh'  -nodelist 'n1010.hpc.nrel.gov n1009.hpc.nrel.gov' -env GAUSS_MDEF=3221225472 -env GAUSS_EXEDIR="/nopt/nrel/apps/gaussian/G16.sandy/g16/linda-exe:/nopt/nrel/apps/gaussian/G16.sandy/g16/bsd:/nopt/nrel/apps/gaussian/G16.sandy/g16/local:/nopt/nrel/apps/gaussian/G16.sandy/g16/extras:/nopt/nrel/apps/gaussian/G16.sandy/g16""
 Will use up to    2 processors via Linda.
 Default route: CacheSize=163840 MaxDisk=128GB
 ---------------------
 #P UwB97X/6-311G** TD
 ---------------------
 1/4=163840,38=1,172=1/1;
 2/4=163840,12=2,17=6,18=5,40=1/2;
 3/4=163840,5=4,6=6,7=101,11=2,25=1,30=1,74=-57,116=2/1,2,3,8;
 4/4=163840/1;
 5/4=163840,5=2,38=5/2;
 8/4=163840,6=1,10=2/1;
 9/4=163840,42=1,70=2/14;
 6/4=163840,7=2,8=2,9=2,10=2/1;
 99/4=163840,5=1,9=1/99;
 Leave Link    1 at Wed Sep 27 14:58:52 2017, MaxMem=           0 cpu:              98.3 elap:               4.3
 (Enter /nopt/nrel/apps/gaussian/G16.sandy/g16/l101.exe)
 ---------------------------------------------------
 TDDFT single-point job to assess G16 functionality.
 ---------------------------------------------------
 Symbolic Z-matrix:
 Charge =  0 Multiplicity = 6
 Mn                   -2.12074   1.69678   0.37457 
 O                    -0.62074   0.3638    0.02809 
 O                    -3.36151   1.21681   1.89606 
 C                     0.11094   0.08305  -1.00103 
 C                     0.00771   0.75224  -2.26067 
 C                     1.0908   -0.94209  -0.90318 
 C                     0.86239   0.38503  -3.32231 
 C                     1.90119  -1.27489  -1.96015 
 H                     1.16555  -1.45739   0.04892 
 C                     1.79864  -0.61035  -3.1948 
 H                     0.76338   0.91446  -4.26788 
 H                     2.6345   -2.06758  -1.83869 
 H                     2.44329  -0.87938  -4.0236 
 C                    -4.43804   1.74918   2.37592 
 C                    -5.02033   2.96265   1.88979 
 C                    -5.10689   1.11276   3.45728 
 C                    -6.20051   3.46147   2.48108 
 C                    -6.25099   1.63179   4.01078 
 H                    -4.67027   0.1892    3.8232 
 C                    -6.81894   2.82357   3.52751 
 H                    -6.62271   4.38387   2.08686 
 H                    -6.72705   1.10843   4.83567 
 H                    -7.72428   3.2244    3.96868 
 C                    -0.93331   1.81467  -2.52348 
 H                    -0.86517   2.25003  -3.53109 
 C                    -4.47437   3.71738   0.78633 
 H                    -5.06531   4.59477   0.4847 
 N                    -1.81753   2.27763  -1.71668 
 N                    -3.39727   3.45292   0.14303 
 C                    -2.70336   3.34334  -2.17072 
 H                    -2.27088   3.90813  -3.00694 
 H                    -3.64445   2.89507  -2.51261 
 C                    -3.00623   4.27186  -0.99208 
 H                    -2.09355   4.81879  -0.7272 
 H                    -3.77915   5.00285  -1.26545 
 O                    -0.69136   2.2072    2.02073 
 H                    -0.09381   1.47171   1.83193 
 H                    -1.20975   1.9401    2.78698 
 
 ITRead=  0  0  0  0  0  0  0  0  0  0  0  0  0  0  0  0  0  0  0  0
 ITRead=  0  0  0  0  0  0  0  0  0  0  0  0  0  0  0  0  0  0
 MicOpt= -1 -1 -1 -1 -1 -1 -1 -1 -1 -1 -1 -1 -1 -1 -1 -1 -1 -1 -1 -1
 MicOpt= -1 -1 -1 -1 -1 -1 -1 -1 -1 -1 -1 -1 -1 -1 -1 -1 -1 -1
 NAtoms=     38 NQM=       38 NQMF=       0 NMMI=      0 NMMIF=      0
                NMic=       0 NMicF=      0.
                    Isotopes and Nuclear Properties:
 (Nuclear quadrupole moments (NQMom) in fm**2, nuclear magnetic moments (NMagM)
  in nuclear magnetons)

  Atom         1           2           3           4           5           6           7           8           9          10
 IAtWgt=          55          16          16          12          12          12          12          12           1          12
 AtmWgt=  54.9380463  15.9949146  15.9949146  12.0000000  12.0000000  12.0000000  12.0000000  12.0000000   1.0078250  12.0000000
 NucSpn=           5           0           0           0           0           0           0           0           1           0
 AtZEff=  -0.0000000  -0.0000000  -0.0000000  -0.0000000  -0.0000000  -0.0000000  -0.0000000  -0.0000000  -0.0000000  -0.0000000
 NQMom=   33.0000000   0.0000000   0.0000000   0.0000000   0.0000000   0.0000000   0.0000000   0.0000000   0.0000000   0.0000000
 NMagM=    3.4532000   0.0000000   0.0000000   0.0000000   0.0000000   0.0000000   0.0000000   0.0000000   2.7928460   0.0000000
 AtZNuc=  25.0000000   8.0000000   8.0000000   6.0000000   6.0000000   6.0000000   6.0000000   6.0000000   1.0000000   6.0000000

  Atom        11          12          13          14          15          16          17          18          19          20
 IAtWgt=           1           1           1          12          12          12          12          12           1          12
 AtmWgt=   1.0078250   1.0078250   1.0078250  12.0000000  12.0000000  12.0000000  12.0000000  12.0000000   1.0078250  12.0000000
 NucSpn=           1           1           1           0           0           0           0           0           1           0
 AtZEff=  -0.0000000  -0.0000000  -0.0000000  -0.0000000  -0.0000000  -0.0000000  -0.0000000  -0.0000000  -0.0000000  -0.0000000
 NQMom=    0.0000000   0.0000000   0.0000000   0.0000000   0.0000000   0.0000000   0.0000000   0.0000000   0.0000000   0.0000000
 NMagM=    2.7928460   2.7928460   2.7928460   0.0000000   0.0000000   0.0000000   0.0000000   0.0000000   2.7928460   0.0000000
 AtZNuc=   1.0000000   1.0000000   1.0000000   6.0000000   6.0000000   6.0000000   6.0000000   6.0000000   1.0000000   6.0000000

  Atom        21          22          23          24          25          26          27          28          29          30
 IAtWgt=           1           1           1          12           1          12           1          14          14          12
 AtmWgt=   1.0078250   1.0078250   1.0078250  12.0000000   1.0078250  12.0000000   1.0078250  14.0030740  14.0030740  12.0000000
 NucSpn=           1           1           1           0           1           0           1           2           2           0
 AtZEff=  -0.0000000  -0.0000000  -0.0000000  -0.0000000  -0.0000000  -0.0000000  -0.0000000  -0.0000000  -0.0000000  -0.0000000
 NQMom=    0.0000000   0.0000000   0.0000000   0.0000000   0.0000000   0.0000000   0.0000000   2.0440000   2.0440000   0.0000000
 NMagM=    2.7928460   2.7928460   2.7928460   0.0000000   2.7928460   0.0000000   2.7928460   0.4037610   0.4037610   0.0000000
 AtZNuc=   1.0000000   1.0000000   1.0000000   6.0000000   1.0000000   6.0000000   1.0000000   7.0000000   7.0000000   6.0000000

  Atom        31          32          33          34          35          36          37          38
 IAtWgt=           1           1          12           1           1          16           1           1
 AtmWgt=   1.0078250   1.0078250  12.0000000   1.0078250   1.0078250  15.9949146   1.0078250   1.0078250
 NucSpn=           1           1           0           1           1           0           1           1
 AtZEff=  -0.0000000  -0.0000000  -0.0000000  -0.0000000  -0.0000000  -0.0000000  -0.0000000  -0.0000000
 NQMom=    0.0000000   0.0000000   0.0000000   0.0000000   0.0000000   0.0000000   0.0000000   0.0000000
 NMagM=    2.7928460   2.7928460   0.0000000   2.7928460   2.7928460   0.0000000   2.7928460   2.7928460
 AtZNuc=   1.0000000   1.0000000   6.0000000   1.0000000   1.0000000   8.0000000   1.0000000   1.0000000
 Leave Link  101 at Wed Sep 27 14:58:52 2017, MaxMem=  3221225472 cpu:              13.3 elap:               0.6
 (Enter /nopt/nrel/apps/gaussian/G16.sandy/g16/l202.exe)
                          Input orientation:                          
 ---------------------------------------------------------------------
 Center     Atomic      Atomic             Coordinates (Angstroms)
 Number     Number       Type             X           Y           Z
 ---------------------------------------------------------------------
      1         25           0       -2.120738    1.696775    0.374566
      2          8           0       -0.620735    0.363802    0.028085
      3          8           0       -3.361513    1.216805    1.896058
      4          6           0        0.110938    0.083045   -1.001034
      5          6           0        0.007708    0.752238   -2.260671
      6          6           0        1.090804   -0.942090   -0.903176
      7          6           0        0.862387    0.385032   -3.322305
      8          6           0        1.901194   -1.274893   -1.960154
      9          1           0        1.165552   -1.457389    0.048924
     10          6           0        1.798639   -0.610354   -3.194799
     11          1           0        0.763382    0.914461   -4.267881
     12          1           0        2.634496   -2.067576   -1.838694
     13          1           0        2.443293   -0.879381   -4.023599
     14          6           0       -4.438042    1.749181    2.375923
     15          6           0       -5.020332    2.962650    1.889793
     16          6           0       -5.106885    1.112762    3.457279
     17          6           0       -6.200506    3.461474    2.481080
     18          6           0       -6.250990    1.631793    4.010777
     19          1           0       -4.670273    0.189202    3.823200
     20          6           0       -6.818943    2.823572    3.527511
     21          1           0       -6.622706    4.383865    2.086860
     22          1           0       -6.727050    1.108429    4.835672
     23          1           0       -7.724284    3.224405    3.968677
     24          6           0       -0.933310    1.814668   -2.523485
     25          1           0       -0.865172    2.250033   -3.531091
     26          6           0       -4.474369    3.717384    0.786325
     27          1           0       -5.065308    4.594766    0.484695
     28          7           0       -1.817528    2.277630   -1.716676
     29          7           0       -3.397270    3.452922    0.143027
     30          6           0       -2.703363    3.343343   -2.170720
     31          1           0       -2.270884    3.908130   -3.006936
     32          1           0       -3.644448    2.895069   -2.512612
     33          6           0       -3.006228    4.271857   -0.992082
     34          1           0       -2.093551    4.818793   -0.727196
     35          1           0       -3.779152    5.002850   -1.265445
     36          8           0       -0.691360    2.207196    2.020732
     37          1           0       -0.093806    1.471707    1.831925
     38          1           0       -1.209753    1.940102    2.786978
 ---------------------------------------------------------------------
                    Distance matrix (angstroms):
                    1          2          3          4          5
     1  Mn   0.000000
     2  O    2.036388   0.000000
     3  O    2.021097   3.424734   0.000000
     4  C    3.078438   1.293544   4.662239   0.000000
     5  C    3.516661   2.405042   5.370835   1.430091   0.000000
     6  C    4.348590   2.345627   5.685039   1.421483   2.426239
     7  C    4.928140   3.664043   6.764946   2.458490   1.411518
     8  C    5.518846   3.605349   6.983911   2.443138   2.790136
     9  H    4.566672   2.551077   5.572929   2.141859   3.399600
    10  C    5.781412   4.146002   7.475460   2.853374   2.436532
    11  H    5.521094   4.546903   7.422959   3.433544   2.150872
    12  H    6.456091   4.471352   7.790228   3.419823   3.876781
    13  H    6.841843   5.229715   8.551731   3.937263   3.420843
    14  C    3.062364   4.690784   1.293294   5.905342   6.500507
    15  C    3.507991   5.438421   2.408255   6.555832   6.884291
    16  C    4.331428   5.696126   2.344048   6.939924   7.680104
    17  C    4.918950   6.837149   3.666152   7.960730   8.268379
    18  C    5.503202   7.012090   3.604626   8.245665   8.903706
    19  H    4.545985   5.552670   2.546114   6.792973   7.695063
    20  C    5.769217   7.530885   4.146946   8.720175   9.186764
    21  H    5.515444   7.511532   4.549951   8.565869   8.720787
    22  H    6.439389   7.807333   4.469890   9.048571   9.789889
    23  H    6.830155   8.612301   5.230677   9.795758  10.232306
    24  C    3.134100   2.951817   5.077989   2.531171   1.443379
    25  H    4.139649   4.035511   6.062444   3.471285   2.149250
    26  C    3.129215   5.164488   2.953447   6.117852   6.177806
    27  H    4.132913   6.153355   4.038005   7.025421   6.930912
    28  N    2.191489   2.852936   4.069531   3.007878   2.440131
    29  N    2.183391   4.155120   2.841587   4.997246   4.966421
    30  C    3.086927   4.248499   4.636163   4.462958   3.751243
    31  H    4.043166   4.949405   5.698425   4.932342   3.963401
    32  H    3.477556   4.690980   4.725780   4.929023   4.241868
    33  C    3.046780   4.690865   4.219114   5.221393   4.804253
    34  H    3.310833   4.752534   4.632872   5.230876   4.827391
    35  H    4.045999   5.759304   4.950117   6.277515   5.779142
    36  O    2.239088   2.715462   2.850638   3.779784   4.575589
    37  H    2.506592   2.181501   3.278261   3.161639   4.156595
    38  H    2.590142   3.231587   2.438641   4.420624   5.326537
                    6          7          8          9         10
     6  C    0.000000
     7  C    2.768684   0.000000
     8  C    1.372841   2.385357   0.000000
     9  H    1.085180   3.853779   2.147293   0.000000
    10  C    2.421284   1.372450   1.405873   3.411745   0.000000
    11  H    3.856842   1.088215   3.378386   4.941884   2.132680
    12  H    2.127181   3.369979   1.086660   2.468446   2.158975
    13  H    3.401499   2.142386   2.169817   4.307222   1.083911
    14  C    6.968757   7.900965   8.254241   6.862746   8.688874
    15  C    7.771335   8.271424   8.982560   7.822449   9.225931
    16  C    7.851582   9.062260   9.174020   7.587228   9.741947
    17  C    9.165575   9.645114  10.382450   9.185282  10.619873
    18  C    9.201834  10.292164  10.514701   8.957925  11.033770
    19  H    7.537139   9.039188   8.875525   7.142358   9.578018
    20  C    9.817092  10.576828  11.088403   9.704605  11.456178
    21  H    9.838920  10.063615  11.002579   9.946376  11.124621
    22  H    9.912510  11.165816  11.238775   9.580686  11.837654
    23  H   10.899560  11.616857  12.167356  10.784843  12.518260
    24  C    3.784462   2.430329   4.230501   4.661423   3.714154
    25  H    4.573995   2.550741   4.748234   5.539434   3.923110
    26  C    7.452266   7.514411   8.550660   7.689652   8.598215
    27  H    8.395277   8.206868   9.431985   8.697246   9.367268
    28  N    4.414383   3.652659   5.148650   5.095731   4.858185
    29  N    6.368161   6.290084   7.406033   6.703682   7.392480
    30  C    5.862364   4.774131   6.524905   6.553041   6.078526
    31  H    6.265093   4.725364   6.735408   7.066553   6.083832
    32  H    6.303704   5.221824   6.960455   6.974343   6.510036
    33  C    6.631653   5.958484   7.469029   7.163219   7.195463
    34  H    6.584744   5.927090   7.389938   7.114392   7.121365
    35  H    7.693505   6.862857   8.494646   8.240895   8.145073
    36  O    4.652241   5.855122   5.890139   4.556899   6.429654
    37  H    3.835426   5.353621   5.089568   3.653037   5.760580
    38  H    5.216975   6.635913   6.522994   4.968094   7.164978
                   11         12         13         14         15
    11  H    0.000000
    12  H    4.277214   0.000000
    13  H    2.469746   2.494429   0.000000
    14  C    8.478897   9.074769   9.757868   0.000000
    15  C    8.692720   9.889448  10.268160   1.431045   0.000000
    16  C    9.704507   9.904083  10.813758   1.421869   2.426229
    17  C   10.026539  11.282203  11.656292   2.459529   1.411119
    18  C   10.874381  11.262926  12.101560   2.444035   2.790031
    19  H    9.773239   9.513661  10.645043   2.140579   3.398914
    20  C   11.041037  11.920025  12.510801   2.854673   2.436486
    21  H   10.342814  11.946834  12.133911   3.434803   2.150881
    22  H   11.790626  11.927813  12.904777   3.420597   3.876754
    23  H   12.050610  13.001344  13.568241   3.938596   3.420765
    24  C    2.594620   5.316954   4.572711   6.024254   6.123613
    25  H    2.231323   5.809788   4.580583   6.921638   6.867253
    26  C    7.799706   9.533753   9.597899   2.530210   1.444071
    27  H    8.372888  10.443750  10.328121   3.473839   2.154095
    28  N    3.876593   6.222236   5.783010   4.888325   4.871737
    29  N    6.573501   8.413401   8.381038   2.995290   2.434315
    30  C    4.723968   7.607958   6.910328   5.120784   4.690526
    31  H    4.445088   7.818990   6.795390   6.191349   5.694853
    32  H    5.141278   8.031634   7.320529   5.083368   4.612894
    33  C    6.017718   8.527774   8.088426   4.444935   3.751778
    34  H    5.995192   8.426858   7.994899   4.954645   4.342804
    35  H    6.809123   9.563180   8.995937   4.927480   3.957079
    36  O    6.582863   6.650576   7.475757   3.791248   4.396346
    37  H    6.184895   5.783044   6.800856   4.386948   5.147516
    38  H    7.397042   7.227487   8.226675   3.259949   4.046116
                   16         17         18         19         20
    16  C    0.000000
    17  C    2.768649   0.000000
    18  C    1.372854   2.385425   0.000000
    19  H    1.085123   3.853656   2.148237   0.000000
    20  C    2.421352   1.372735   1.405864   3.412348   0.000000
    21  H    3.856926   1.088332   3.378392   4.941869   2.132721
    22  H    2.127186   3.370189   1.086736   2.469901   2.159038
    23  H    3.401667   2.142673   2.169972   4.308202   1.083945
    24  C    7.326728   7.449899   8.426609   7.542376   8.501360
    25  H    8.253656   8.128935   9.288112   8.532960   9.252038
    26  C    3.783930   2.432536   4.231213   4.659298   3.716185
    27  H    4.578464   2.560972   4.755871   5.541720   3.933331
    28  N    6.240721   6.183295   7.271617   6.571903   7.267304
    29  N    4.402658   3.650301   5.140012   5.080952   4.853726
    30  C    6.513584   5.820928   7.329800   7.052972   7.048262
    31  H    7.592303   6.764595   8.382795   8.138689   8.034930
    32  H    6.399605   5.638369   7.137544   6.965382   6.823900
    33  C    5.847175   4.787796   6.521274   6.528710   6.087778
    34  H    6.350172   5.385390   7.063261   6.984176   6.664291
    35  H    6.260973   4.719666   6.731458   7.061134   6.079639
    36  O    4.770567   5.668847   5.933031   4.811750   6.340156
    37  H    5.282194   6.455413   6.533295   5.153062   7.066118
    38  H    4.039979   5.226448   5.196808   4.014300   5.726423
                   21         22         23         24         25
    21  H    0.000000
    22  H    4.277305   0.000000
    23  H    2.469627   2.494696   0.000000
    24  C    7.760495   9.392731   9.500150   0.000000
    25  H    8.322488  10.279475  10.209963   1.099752   0.000000
    26  C    2.598257   5.317747   4.575187   5.207136   5.815454
    27  H    2.244304   5.817812   4.591968   5.818204   6.266215
    28  N    6.480189   8.270653   8.252841   1.283400   2.049352
    29  N    3.879250   6.213292   5.780213   3.983122   4.621429
    30  C    5.879704   8.382984   7.931960   2.365244   2.534735
    31  H    6.716505   9.444694   8.880666   2.530892   2.236079
    32  H    5.678175   8.166504   7.665548   2.918502   3.029479
    33  C    4.750931   7.603585   6.925773   3.560893   3.888246
    34  H    5.349890   8.135208   7.503229   3.687490   3.996157
    35  H    4.439244   7.815385   6.791389   4.454883   4.604610
    36  O    6.318475   6.749869   7.368258   4.567551   5.554708
    37  H    7.153474   7.290706   8.115532   4.448818   5.473823
    38  H    5.980151   5.943853   6.744254   5.319133   6.335045
                   26         27         28         29         30
    26  C    0.000000
    27  H    1.099995   0.000000
    28  N    3.923864   4.556669   0.000000
    29  N    1.282152   2.050096   2.708393   0.000000
    30  C    3.467057   3.767768   1.458288   2.418045   0.000000
    31  H    4.390963   4.524573   2.128105   3.376126   1.097852
    32  H    3.499708   3.727152   2.086236   2.724833   1.097033
    33  C    2.371837   2.554398   2.432074   1.453286   1.530703
    34  H    3.028554   3.217174   2.740943   2.079080   2.152344
    35  H    2.519030   2.209914   3.387979   2.128827   2.175042
    36  O    4.256241   5.214530   3.904028   3.521301   4.786153
    37  H    5.032462   6.023650   4.026574   4.206003   5.131664
    38  H    4.221263   5.216613   4.556996   3.750244   5.364581
                   31         32         33         34         35
    31  H    0.000000
    32  H    1.776887   0.000000
    33  C    2.175469   2.148228   0.000000
    34  H    2.461294   3.048558   1.096487   0.000000
    35  H    2.550701   2.452817   1.098403   1.779000   0.000000
    36  O    5.537646   5.453907   4.324175   4.041990   5.305573
    37  H    5.838699   5.788611   4.929306   4.663804   5.970297
    38  H    6.210360   5.909768   4.790167   4.627891   5.692484
                   36         37         38
    36  O    0.000000
    37  H    0.966262   0.000000
    38  H    0.962914   1.541706   0.000000
 Stoichiometry    C16H16MnN2O3(6)
 Framework group  C1[X(C16H16MnN2O3)]
 Deg. of freedom   108
 Full point group                 C1      NOp   1
 Largest Abelian subgroup         C1      NOp   1
 Largest concise Abelian subgroup C1      NOp   1
                         Standard orientation:                         
 ---------------------------------------------------------------------
 Center     Atomic      Atomic             Coordinates (Angstroms)
 Number     Number       Type             X           Y           Z
 ---------------------------------------------------------------------
      1         25           0        0.003363   -0.171978    0.197232
      2          8           0        1.739072   -1.234323    0.122329
      3          8           0       -1.673881   -1.241119   -0.161404
      4          6           0        2.976563   -0.918957   -0.083624
      5          6           0        3.432390    0.416691   -0.314768
      6          6           0        3.967681   -1.937913   -0.078243
      7          6           0        4.807671    0.663978   -0.514360
      8          6           0        5.296478   -1.659103   -0.281358
      9          1           0        3.623559   -2.953495    0.088452
     10          6           0        5.739610   -0.343488   -0.503325
     11          1           0        5.125441    1.690828   -0.684098
     12          1           0        6.017742   -2.471814   -0.270854
     13          1           0        6.790926   -0.132716   -0.661984
     14          6           0       -2.925906   -0.934748   -0.267138
     15          6           0       -3.448139    0.385691   -0.089364
     16          6           0       -3.868057   -1.953738   -0.576525
     17          6           0       -4.833089    0.617807   -0.228263
     18          6           0       -5.209917   -1.690345   -0.698038
     19          1           0       -3.473147   -2.954529   -0.717792
     20          6           0       -5.716454   -0.390540   -0.523737
     21          1           0       -5.200253    1.633241   -0.092057
     22          1           0       -5.891426   -2.502458   -0.936813
     23          1           0       -6.777137   -0.191273   -0.624639
     24          6           0        2.555641    1.562740   -0.349772
     25          1           0        3.063971    2.525615   -0.504453
     26          6           0       -2.621412    1.531672    0.208281
     27          1           0       -3.155960    2.491914    0.254999
     28          7           0        1.278103    1.559333   -0.227295
     29          7           0       -1.354760    1.524705    0.406919
     30          6           0        0.553708    2.821895   -0.315569
     31          1           0        1.196478    3.680966   -0.082927
     32          1           0        0.182118    2.941868   -1.340756
     33          6           0       -0.645540    2.772625    0.634394
     34          1           0       -0.280247    2.780546    1.668213
     35          1           0       -1.289011    3.650919    0.489363
     36          8           0       -0.039578   -1.222426    2.174156
     37          1           0        0.743695   -1.757963    1.991546
     38          1           0       -0.796476   -1.803132    2.043425
 ---------------------------------------------------------------------
 Rotational constants (GHZ):           0.6244949           0.1413061           0.1224263
 Leave Link  202 at Wed Sep 27 14:58:53 2017, MaxMem=  3221225472 cpu:               2.3 elap:               0.1
 (Enter /nopt/nrel/apps/gaussian/G16.sandy/g16/l301.exe)
 Standard basis: 6-311G(d,p) (5D, 7F)
 Ernie: Thresh=  0.10000D-02 Tol=  0.10000D-05 Strict=F.
 There are   547 symmetry adapted cartesian basis functions of A   symmetry.
 There are   520 symmetry adapted basis functions of A   symmetry.
   520 basis functions,   881 primitive gaussians,   547 cartesian basis functions
    90 alpha electrons       85 beta electrons
       nuclear repulsion energy      2139.3101546538 Hartrees.
 IExCor= 4538 DFT=T Ex+Corr=wB97X ExCW=0 ScaHFX=  1.000000
 ScaDFX=  1.000000  1.000000  1.000000  1.000000 ScalE2=  1.000000  1.000000
 IRadAn=      5 IRanWt=     -1 IRanGd=            0 ICorTp=0 IEmpDi=  4
 HFx  wShort=  0.000000 wLong=  0.300000 cFull=  0.157706 cShort=  0.000000 cLong=  0.842294
 DFx  wShort=  0.000000 wLong=  0.300000 cFull=  0.000000 cShort=  0.000000 cLong=  1.000000
 NAtoms=   38 NActive=   38 NUniq=   38 SFac= 1.00D+00 NAtFMM=   60 NAOKFM=F Big=F
 Integral buffers will be    131072 words long.
 Raffenetti 2 integral format.
 Two-electron integral symmetry is turned on.
 Leave Link  301 at Wed Sep 27 14:58:54 2017, MaxMem=  3221225472 cpu:              16.4 elap:               0.7
 (Enter /nopt/nrel/apps/gaussian/G16.sandy/g16/linda-exe/l302.exel)
 NPDir=0 NMtPBC=     1 NCelOv=     1 NCel=       1 NClECP=     1 NCelD=      1
         NCelK=      1 NCelE2=     1 NClLst=     1 CellRange=     0.0.
 One-electron integrals computed using PRISM.
 One-electron integral symmetry used in STVInt
 NBasis=   520 RedAO= T EigKep=  1.97D-04  NBF=   520
 NBsUse=   520 1.00D-06 EigRej= -1.00D+00 NBFU=   520
 Precomputing XC quadrature grid using
 IXCGrd= 4 IRadAn=           5 IRanWt=          -1 IRanGd=           0 AccXCQ= 0.00D+00.
 Generated NRdTot=       0 NPtTot=           0 NUsed=           0 NTot=          32
 NSgBfM=   523   523   523   523   523 MxSgAt=    38 MxSgA2=    38.
 Leave Link  302 at Wed Sep 27 14:59:09 2017, MaxMem=  3221225472 cpu:              26.3 elap:               1.2
 (Enter /nopt/nrel/apps/gaussian/G16.sandy/g16/l303.exe)
 DipDrv:  MaxL=1.
 Leave Link  303 at Wed Sep 27 14:59:10 2017, MaxMem=  3221225472 cpu:               9.5 elap:               0.5
 (Enter /nopt/nrel/apps/gaussian/G16.sandy/g16/l308.exe)
 Leave Link  308 at Wed Sep 27 14:59:10 2017, MaxMem=  3221225472 cpu:               6.2 elap:               0.3
 (Enter /nopt/nrel/apps/gaussian/G16.sandy/g16/linda-exe/l401.exel)
 ExpMin= 3.96D-02 ExpMax= 2.44D+05 ExpMxC= 8.22D+03 IAcc=3 IRadAn=         5 AccDes= 0.00D+00
 Harris functional with IExCor= 4538 and IRadAn=       5 diagonalized for initial guess.
 HarFok:  IExCor= 4538 AccDes= 0.00D+00 IRadAn=         5 IDoV= 1 UseB2=F ITyADJ=14
 ICtDFT=  3500011 ScaDFX=  1.000000  1.000000  1.000000  1.000000
 FoFCou: FMM=F IPFlag=           0 FMFlag=      100000 FMFlg1=           0
         NFxFlg=           0 DoJE=T BraDBF=F KetDBF=T FulRan=T
         wScrn=  0.000000 ICntrl=       500 IOpCl=  0 I1Cent=   200000004 NGrid=           0
         NMat0=    1 NMatS0=      1 NMatT0=    0 NMatD0=    1 NMtDS0=    0 NMtDT0=    0
 Petite list used in FoFCou.
 Harris En= -2054.52861579615    
 JPrj=0 DoOrth=F DoCkMO=F.
 Initial guess <Sx>= 0.0000 <Sy>= 0.0000 <Sz>= 2.5000 <S**2>= 8.7500 S= 2.5000
 Leave Link  401 at Wed Sep 27 14:59:16 2017, MaxMem=  3221225472 cpu:              58.3 elap:               2.6
 (Enter /nopt/nrel/apps/gaussian/G16.sandy/g16/linda-exe/l502.exel)
 Integral symmetry usage will be decided dynamically.
 UHF open shell SCF:
 Using DIIS extrapolation, IDIIS=  1040.
 NGot=  3221225472 LenX=  3220608587 LenY=  3220308831
 Requested convergence on RMS density matrix=1.00D-08 within 128 cycles.
 Requested convergence on MAX density matrix=1.00D-06.
 Requested convergence on             energy=1.00D-06.
 No special actions if energy rises.
 Fock matrices will be formed incrementally for  20 cycles.

 Cycle   1  Pass 1  IDiag  1:
 FoFJK:  IHMeth= 1 ICntrl=       0 DoSepK=T KAlg= 0 I1Cent=           0 FoldK=F
 IRaf=         1 NMat=       1 IRICut=       1 DoRegI=T DoRafI=F ISym2E= 0 IDoP0=0 IntGTp=1.
 FoFCou: FMM=F IPFlag=           0 FMFlag=      100000 FMFlg1=           0
         NFxFlg=           0 DoJE=T BraDBF=F KetDBF=F FulRan=T
         wScrn=  0.000000 ICntrl=       500 IOpCl=  0 I1Cent=           0 NGrid=           0
         NMat0=    1 NMatS0=      1 NMatT0=    0 NMatD0=    1 NMtDS0=    0 NMtDT0=    0
 Symmetry not used in FoFCou.
 E= -2100.91022929836    
 DIIS: error= 2.40D-01 at cycle   1 NSaved=   1.
 NSaved= 1 IEnMin= 1 EnMin= -2100.91022929836     IErMin= 1 ErrMin= 2.40D-01
 ErrMax= 2.40D-01  0.00D+00 EMaxC= 1.00D-01 BMatC= 3.44D+01 BMatP= 3.44D+01
 IDIUse=3 WtCom= 0.00D+00 WtEn= 1.00D+00
 Coeff-Com:  0.100D+01
 Coeff-En:   0.100D+01
 Coeff:      0.100D+01
 Gap=     0.624 Goal=   None    Shift=    0.000
 Gap=     0.036 Goal=   None    Shift=    0.000
 GapD=    0.036 DampG=0.250 DampE=0.125 DampFc=0.1250 IDamp=-1.
 Damping current iteration by 1.25D-01
 RMSDP=2.00D-02 MaxDP=3.17D+00              OVMax= 9.83D-01

 Cycle   2  Pass 1  IDiag  1:
 RMSU=  2.47D-03    CP:  9.67D-01
 E= -2102.46446793089     Delta-E=       -1.554238632530 Rises=F Damp=T
 DIIS: error= 9.31D-02 at cycle   2 NSaved=   2.
 NSaved= 2 IEnMin= 2 EnMin= -2102.46446793089     IErMin= 2 ErrMin= 9.31D-02
 ErrMax= 9.31D-02  0.00D+00 EMaxC= 1.00D-01 BMatC= 1.23D+01 BMatP= 3.44D+01
 IDIUse=3 WtCom= 6.89D-02 WtEn= 9.31D-01
 Coeff-Com: -0.839D+00 0.184D+01
 Coeff-En:   0.000D+00 0.100D+01
 Coeff:     -0.578D-01 0.106D+01
 Gap=     0.149 Goal=   None    Shift=    0.000
 Gap=     0.189 Goal=   None    Shift=    0.000
 RMSDP=7.09D-03 MaxDP=2.44D+00 DE=-1.55D+00 OVMax= 8.22D-01

 Cycle   3  Pass 1  IDiag  1:
 RMSU=  5.92D-03    CP:  6.38D-01  1.10D+00
 E= -2089.95770485467     Delta-E=       12.506763076226 Rises=F Damp=F
 DIIS: error= 2.22D-01 at cycle   3 NSaved=   3.
 NSaved= 3 IEnMin= 2 EnMin= -2102.46446793089     IErMin= 2 ErrMin= 9.31D-02
 ErrMax= 2.22D-01  0.00D+00 EMaxC= 1.00D-01 BMatC= 1.13D+02 BMatP= 1.23D+01
 IDIUse=2 WtCom= 0.00D+00 WtEn= 1.00D+00
 EnCoef did   100 forward-backward iterations
 Coeff-En:   0.660D+00 0.238D-01 0.316D+00
 Coeff:      0.660D+00 0.238D-01 0.316D+00
 Gap=     0.243 Goal=   None    Shift=    0.000
 Gap=     0.046 Goal=   None    Shift=    0.000
 RMSDP=2.91D-03 MaxDP=2.80D-01 DE= 1.25D+01 OVMax= 9.45D-01

 Cycle   4  Pass 1  IDiag  1:
 RMSU=  2.41D-03    CP:  6.69D-01  6.56D-01  8.09D-01
 E= -2103.55362691557     Delta-E=      -13.595922060908 Rises=F Damp=F
 DIIS: error= 1.30D-01 at cycle   4 NSaved=   4.
 NSaved= 4 IEnMin= 4 EnMin= -2103.55362691557     IErMin= 2 ErrMin= 9.31D-02
 ErrMax= 1.30D-01  0.00D+00 EMaxC= 1.00D-01 BMatC= 1.07D+01 BMatP= 1.23D+01
 IDIUse=3 WtCom= 0.00D+00 WtEn= 1.00D+00
 EnCoef did   100 forward-backward iterations
 Coeff-Com: -0.402D-01 0.494D+00-0.541D-01 0.600D+00
 Coeff-En:   0.358D+00 0.539D-02 0.000D+00 0.637D+00
 Coeff:      0.358D+00 0.539D-02 0.000D+00 0.637D+00
 Gap=     0.101 Goal=   None    Shift=    0.000
 Gap=     0.231 Goal=   None    Shift=    0.000
 RMSDP=2.60D-03 MaxDP=1.83D-01 DE=-1.36D+01 OVMax= 8.51D-01

 Cycle   5  Pass 1  IDiag  1:
 RMSU=  2.29D-03    CP:  7.11D-01  4.35D-01  6.50D-01  8.81D-01
 E= -2104.87501023916     Delta-E=       -1.321383323589 Rises=F Damp=F
 DIIS: error= 5.50D-02 at cycle   5 NSaved=   5.
 NSaved= 5 IEnMin= 5 EnMin= -2104.87501023916     IErMin= 5 ErrMin= 5.50D-02
 ErrMax= 5.50D-02  0.00D+00 EMaxC= 1.00D-01 BMatC= 2.27D+00 BMatP= 1.07D+01
 IDIUse=3 WtCom= 4.50D-01 WtEn= 5.50D-01
 Coeff-Com: -0.309D+00 0.448D+00-0.200D-01 0.182D+00 0.699D+00
 Coeff-En:   0.000D+00 0.000D+00 0.000D+00 0.302D+00 0.698D+00
 Coeff:     -0.139D+00 0.202D+00-0.900D-02 0.248D+00 0.698D+00
 Gap=     0.069 Goal=   None    Shift=    0.000
 Gap=     0.263 Goal=   None    Shift=    0.000
 RMSDP=2.14D-03 MaxDP=2.46D-01 DE=-1.32D+00 OVMax= 9.70D-01

 Cycle   6  Pass 1  IDiag  1:
 RMSU=  1.21D-03    CP:  6.60D-01  5.81D-01  7.84D-01  1.00D+00  3.97D-01
 E= -2105.49955704827     Delta-E=       -0.624546809105 Rises=F Damp=F
 DIIS: error= 1.59D-02 at cycle   6 NSaved=   6.
 NSaved= 6 IEnMin= 6 EnMin= -2105.49955704827     IErMin= 6 ErrMin= 1.59D-02
 ErrMax= 1.59D-02  0.00D+00 EMaxC= 1.00D-01 BMatC= 2.93D-01 BMatP= 2.27D+00
 IDIUse=3 WtCom= 8.41D-01 WtEn= 1.59D-01
 Coeff-Com: -0.111D+00 0.146D+00-0.406D-02-0.676D-02 0.313D+00 0.662D+00
 Coeff-En:   0.000D+00 0.000D+00 0.000D+00 0.000D+00 0.000D+00 0.100D+01
 Coeff:     -0.930D-01 0.123D+00-0.342D-02-0.569D-02 0.264D+00 0.716D+00
 Gap=     0.174 Goal=   None    Shift=    0.000
 Gap=     0.321 Goal=   None    Shift=    0.000
 RMSDP=5.56D-04 MaxDP=2.77D-02 DE=-6.25D-01 OVMax= 1.40D-01

 Cycle   7  Pass 1  IDiag  1:
 RMSU=  4.88D-04    CP:  6.57D-01  5.61D-01  7.89D-01  9.81D-01  5.07D-01
                    CP:  9.97D-01
 E= -2105.57905106680     Delta-E=       -0.079494018537 Rises=F Damp=F
 DIIS: error= 7.71D-03 at cycle   7 NSaved=   7.
 NSaved= 7 IEnMin= 7 EnMin= -2105.57905106680     IErMin= 7 ErrMin= 7.71D-03
 ErrMax= 7.71D-03  0.00D+00 EMaxC= 1.00D-01 BMatC= 3.79D-02 BMatP= 2.93D-01
 IDIUse=3 WtCom= 9.23D-01 WtEn= 7.71D-02
 Coeff-Com: -0.318D-01 0.414D-01-0.270D-02-0.277D-01 0.825D-01 0.261D+00
 Coeff-Com:  0.678D+00
 Coeff-En:   0.000D+00 0.000D+00 0.000D+00 0.000D+00 0.000D+00 0.000D+00
 Coeff-En:   0.100D+01
 Coeff:     -0.293D-01 0.382D-01-0.249D-02-0.256D-01 0.762D-01 0.241D+00
 Coeff:      0.702D+00
 Gap=     0.273 Goal=   None    Shift=    0.000
 Gap=     0.301 Goal=   None    Shift=    0.000
 RMSDP=2.28D-04 MaxDP=1.65D-02 DE=-7.95D-02 OVMax= 4.47D-02

 Cycle   8  Pass 1  IDiag  1:
 RMSU=  2.15D-04    CP:  6.53D-01  5.61D-01  7.94D-01  9.71D-01  5.02D-01
                    CP:  1.03D+00  1.04D+00
 E= -2105.59014990354     Delta-E=       -0.011098836733 Rises=F Damp=F
 DIIS: error= 3.73D-03 at cycle   8 NSaved=   8.
 NSaved= 8 IEnMin= 8 EnMin= -2105.59014990354     IErMin= 8 ErrMin= 3.73D-03
 ErrMax= 3.73D-03  0.00D+00 EMaxC= 1.00D-01 BMatC= 1.36D-02 BMatP= 3.79D-02
 IDIUse=3 WtCom= 9.63D-01 WtEn= 3.73D-02
 Coeff-Com:  0.475D-02-0.715D-02-0.163D-03-0.892D-02-0.213D-02-0.108D+00
 Coeff-Com:  0.253D+00 0.869D+00
 Coeff-En:   0.000D+00 0.000D+00 0.000D+00 0.000D+00 0.000D+00 0.000D+00
 Coeff-En:   0.000D+00 0.100D+01
 Coeff:      0.458D-02-0.689D-02-0.157D-03-0.858D-02-0.205D-02-0.104D+00
 Coeff:      0.243D+00 0.874D+00
 Gap=     0.302 Goal=   None    Shift=    0.000
 Gap=     0.304 Goal=   None    Shift=    0.000
 RMSDP=1.75D-04 MaxDP=1.18D-02 DE=-1.11D-02 OVMax= 3.63D-02

 Cycle   9  Pass 1  IDiag  1:
 RMSU=  9.51D-05    CP:  6.52D-01  5.56D-01  7.96D-01  9.65D-01  5.28D-01
                    CP:  1.04D+00  1.30D+00  1.13D+00
 E= -2105.59554008258     Delta-E=       -0.005390179042 Rises=F Damp=F
 DIIS: error= 1.31D-03 at cycle   9 NSaved=   9.
 NSaved= 9 IEnMin= 9 EnMin= -2105.59554008258     IErMin= 9 ErrMin= 1.31D-03
 ErrMax= 1.31D-03  0.00D+00 EMaxC= 1.00D-01 BMatC= 1.22D-03 BMatP= 1.36D-02
 IDIUse=3 WtCom= 9.87D-01 WtEn= 1.31D-02
 Coeff-Com: -0.173D-03 0.497D-03 0.422D-03 0.142D-02-0.182D-02-0.680D-01
 Coeff-Com: -0.651D-01 0.252D+00 0.881D+00
 Coeff-En:   0.000D+00 0.000D+00 0.000D+00 0.000D+00 0.000D+00 0.000D+00
 Coeff-En:   0.000D+00 0.000D+00 0.100D+01
 Coeff:     -0.171D-03 0.490D-03 0.416D-03 0.140D-02-0.180D-02-0.671D-01
 Coeff:     -0.643D-01 0.249D+00 0.882D+00
 Gap=     0.302 Goal=   None    Shift=    0.000
 Gap=     0.304 Goal=   None    Shift=    0.000
 RMSDP=6.76D-05 MaxDP=4.97D-03 DE=-5.39D-03 OVMax= 1.40D-02

 Cycle  10  Pass 1  IDiag  1:
 RMSU=  3.34D-05    CP:  6.51D-01  5.56D-01  7.98D-01  9.58D-01  5.31D-01
                    CP:  1.04D+00  1.37D+00  1.33D+00  1.10D+00
 E= -2105.59632895084     Delta-E=       -0.000788868258 Rises=F Damp=F
 DIIS: error= 2.86D-04 at cycle  10 NSaved=  10.
 NSaved=10 IEnMin=10 EnMin= -2105.59632895084     IErMin=10 ErrMin= 2.86D-04
 ErrMax= 2.86D-04  0.00D+00 EMaxC= 1.00D-01 BMatC= 1.33D-04 BMatP= 1.22D-03
 IDIUse=3 WtCom= 9.97D-01 WtEn= 2.86D-03
 Coeff-Com:  0.721D-04 0.108D-03 0.145D-03 0.636D-03-0.339D-02 0.276D-02
 Coeff-Com: -0.228D-01-0.450D-01 0.801D-01 0.987D+00
 Coeff-En:   0.000D+00 0.000D+00 0.000D+00 0.000D+00 0.000D+00 0.000D+00
 Coeff-En:   0.000D+00 0.000D+00 0.000D+00 0.100D+01
 Coeff:      0.719D-04 0.107D-03 0.145D-03 0.634D-03-0.338D-02 0.275D-02
 Coeff:     -0.228D-01-0.448D-01 0.798D-01 0.987D+00
 Gap=     0.300 Goal=   None    Shift=    0.000
 Gap=     0.300 Goal=   None    Shift=    0.000
 RMSDP=2.90D-05 MaxDP=1.82D-03 DE=-7.89D-04 OVMax= 7.12D-03

 Cycle  11  Pass 1  IDiag  1:
 RMSU=  1.45D-05    CP:  6.51D-01  5.56D-01  7.99D-01  9.56D-01  5.29D-01
                    CP:  1.04D+00  1.38D+00  1.39D+00  1.23D+00  1.38D+00
 E= -2105.59644481961     Delta-E=       -0.000115868776 Rises=F Damp=F
 DIIS: error= 1.37D-04 at cycle  11 NSaved=  11.
 NSaved=11 IEnMin=11 EnMin= -2105.59644481961     IErMin=11 ErrMin= 1.37D-04
 ErrMax= 1.37D-04  0.00D+00 EMaxC= 1.00D-01 BMatC= 5.63D-05 BMatP= 1.33D-04
 IDIUse=3 WtCom= 9.99D-01 WtEn= 1.37D-03
 Coeff-Com:  0.233D-03-0.355D-03 0.124D-03-0.155D-03-0.183D-02 0.144D-01
 Coeff-Com:  0.471D-02-0.565D-01-0.114D+00 0.365D+00 0.789D+00
 Coeff-En:   0.000D+00 0.000D+00 0.000D+00 0.000D+00 0.000D+00 0.000D+00
 Coeff-En:   0.000D+00 0.000D+00 0.000D+00 0.000D+00 0.100D+01
 Coeff:      0.233D-03-0.354D-03 0.124D-03-0.155D-03-0.183D-02 0.144D-01
 Coeff:      0.470D-02-0.565D-01-0.114D+00 0.364D+00 0.789D+00
 Gap=     0.301 Goal=   None    Shift=    0.000
 Gap=     0.300 Goal=   None    Shift=    0.000
 RMSDP=1.36D-05 MaxDP=6.98D-04 DE=-1.16D-04 OVMax= 3.65D-03

 Cycle  12  Pass 1  IDiag  1:
 RMSU=  6.78D-06    CP:  6.51D-01  5.57D-01  7.99D-01  9.55D-01  5.28D-01
                    CP:  1.04D+00  1.38D+00  1.41D+00  1.27D+00  1.64D+00
                    CP:  1.22D+00
 E= -2105.59647726661     Delta-E=       -0.000032446997 Rises=F Damp=F
 DIIS: error= 9.50D-05 at cycle  12 NSaved=  12.
 NSaved=12 IEnMin=12 EnMin= -2105.59647726661     IErMin=12 ErrMin= 9.50D-05
 ErrMax= 9.50D-05  0.00D+00 EMaxC= 1.00D-01 BMatC= 1.07D-05 BMatP= 5.63D-05
 IDIUse=1 WtCom= 1.00D+00 WtEn= 0.00D+00
 Coeff-Com:  0.601D-04-0.143D-03 0.451D-04-0.137D-03-0.216D-03 0.151D-02
 Coeff-Com:  0.742D-02 0.280D-02-0.307D-01-0.163D+00 0.921D-01 0.109D+01
 Coeff:      0.601D-04-0.143D-03 0.451D-04-0.137D-03-0.216D-03 0.151D-02
 Coeff:      0.742D-02 0.280D-02-0.307D-01-0.163D+00 0.921D-01 0.109D+01
 Gap=     0.301 Goal=   None    Shift=    0.000
 Gap=     0.300 Goal=   None    Shift=    0.000
 RMSDP=9.16D-06 MaxDP=4.66D-04 DE=-3.24D-05 OVMax= 2.89D-03

 Cycle  13  Pass 1  IDiag  1:
 RMSU=  4.00D-06    CP:  6.51D-01  5.57D-01  7.99D-01  9.54D-01  5.27D-01
                    CP:  1.04D+00  1.38D+00  1.41D+00  1.30D+00  1.78D+00
                    CP:  1.55D+00  1.39D+00
 E= -2105.59648978003     Delta-E=       -0.000012513416 Rises=F Damp=F
 DIIS: error= 6.38D-05 at cycle  13 NSaved=  13.
 NSaved=13 IEnMin=13 EnMin= -2105.59648978003     IErMin=13 ErrMin= 6.38D-05
 ErrMax= 6.38D-05  0.00D+00 EMaxC= 1.00D-01 BMatC= 3.32D-06 BMatP= 1.07D-05
 IDIUse=1 WtCom= 1.00D+00 WtEn= 0.00D+00
 Coeff-Com: -0.761D-04 0.106D-03-0.152D-04-0.167D-04 0.183D-03-0.214D-02
 Coeff-Com:  0.241D-02 0.113D-01 0.776D-02-0.132D+00-0.123D+00 0.443D+00
 Coeff-Com:  0.793D+00
 Coeff:     -0.761D-04 0.106D-03-0.152D-04-0.167D-04 0.183D-03-0.214D-02
 Coeff:      0.241D-02 0.113D-01 0.776D-02-0.132D+00-0.123D+00 0.443D+00
 Coeff:      0.793D+00
 Gap=     0.301 Goal=   None    Shift=    0.000
 Gap=     0.300 Goal=   None    Shift=    0.000
 RMSDP=4.26D-06 MaxDP=2.55D-04 DE=-1.25D-05 OVMax= 1.35D-03

 Cycle  14  Pass 1  IDiag  1:
 RMSU=  1.94D-06    CP:  6.51D-01  5.57D-01  7.99D-01  9.54D-01  5.27D-01
                    CP:  1.04D+00  1.38D+00  1.42D+00  1.31D+00  1.83D+00
                    CP:  1.67D+00  1.74D+00  1.29D+00
 E= -2105.59649377978     Delta-E=       -0.000003999749 Rises=F Damp=F
 DIIS: error= 4.42D-05 at cycle  14 NSaved=  14.
 NSaved=14 IEnMin=14 EnMin= -2105.59649377978     IErMin=14 ErrMin= 4.42D-05
 ErrMax= 4.42D-05  0.00D+00 EMaxC= 1.00D-01 BMatC= 1.13D-06 BMatP= 3.32D-06
 IDIUse=1 WtCom= 1.00D+00 WtEn= 0.00D+00
 Coeff-Com: -0.602D-04 0.103D-03-0.268D-04 0.229D-04 0.211D-03-0.694D-03
 Coeff-Com: -0.228D-02 0.105D-03 0.934D-02 0.342D-01-0.449D-01-0.293D+00
 Coeff-Com:  0.123D+00 0.117D+01
 Coeff:     -0.602D-04 0.103D-03-0.268D-04 0.229D-04 0.211D-03-0.694D-03
 Coeff:     -0.228D-02 0.105D-03 0.934D-02 0.342D-01-0.449D-01-0.293D+00
 Coeff:      0.123D+00 0.117D+01
 Gap=     0.301 Goal=   None    Shift=    0.000
 Gap=     0.300 Goal=   None    Shift=    0.000
 RMSDP=3.61D-06 MaxDP=2.96D-04 DE=-4.00D-06 OVMax= 1.18D-03

 Cycle  15  Pass 1  IDiag  1:
 RMSU=  1.14D-06    CP:  6.51D-01  5.57D-01  7.99D-01  9.54D-01  5.27D-01
                    CP:  1.04D+00  1.38D+00  1.42D+00  1.31D+00  1.87D+00
                    CP:  1.74D+00  1.96D+00  1.86D+00  1.68D+00
 E= -2105.59649619230     Delta-E=       -0.000002412523 Rises=F Damp=F
 DIIS: error= 2.95D-05 at cycle  15 NSaved=  15.
 NSaved=15 IEnMin=15 EnMin= -2105.59649619230     IErMin=15 ErrMin= 2.95D-05
 ErrMax= 2.95D-05  0.00D+00 EMaxC= 1.00D-01 BMatC= 4.90D-07 BMatP= 1.13D-06
 IDIUse=1 WtCom= 1.00D+00 WtEn= 0.00D+00
 Coeff-Com: -0.296D-04 0.419D-04-0.125D-04 0.124D-04 0.987D-04 0.722D-03
 Coeff-Com: -0.174D-02-0.500D-02-0.214D-03 0.597D-01 0.395D-01-0.239D+00
 Coeff-Com: -0.270D+00 0.294D+00 0.112D+01
 Coeff:     -0.296D-04 0.419D-04-0.125D-04 0.124D-04 0.987D-04 0.722D-03
 Coeff:     -0.174D-02-0.500D-02-0.214D-03 0.597D-01 0.395D-01-0.239D+00
 Coeff:     -0.270D+00 0.294D+00 0.112D+01
 Gap=     0.301 Goal=   None    Shift=    0.000
 Gap=     0.300 Goal=   None    Shift=    0.000
 RMSDP=2.58D-06 MaxDP=2.25D-04 DE=-2.41D-06 OVMax= 8.33D-04

 Cycle  16  Pass 1  IDiag  1:
 RMSU=  7.29D-07    CP:  6.51D-01  5.57D-01  7.99D-01  9.54D-01  5.27D-01
                    CP:  1.04D+00  1.39D+00  1.42D+00  1.32D+00  1.88D+00
                    CP:  1.78D+00  2.08D+00  2.22D+00  2.43D+00  1.70D+00
 E= -2105.59649728691     Delta-E=       -0.000001094611 Rises=F Damp=F
 DIIS: error= 1.91D-05 at cycle  16 NSaved=  16.
 NSaved=16 IEnMin=16 EnMin= -2105.59649728691     IErMin=16 ErrMin= 1.91D-05
 ErrMax= 1.91D-05  0.00D+00 EMaxC= 1.00D-01 BMatC= 1.75D-07 BMatP= 4.90D-07
 IDIUse=1 WtCom= 1.00D+00 WtEn= 0.00D+00
 Coeff-Com: -0.507D-05-0.368D-05 0.686D-05-0.639D-05-0.342D-05 0.421D-03
 Coeff-Com:  0.244D-03-0.138D-02-0.290D-02 0.261D-02 0.243D-01 0.377D-01
 Coeff-Com: -0.118D+00-0.351D+00 0.349D+00 0.106D+01
 Coeff:     -0.507D-05-0.368D-05 0.686D-05-0.639D-05-0.342D-05 0.421D-03
 Coeff:      0.244D-03-0.138D-02-0.290D-02 0.261D-02 0.243D-01 0.377D-01
 Coeff:     -0.118D+00-0.351D+00 0.349D+00 0.106D+01
 Gap=     0.301 Goal=   None    Shift=    0.000
 Gap=     0.300 Goal=   None    Shift=    0.000
 RMSDP=1.67D-06 MaxDP=1.46D-04 DE=-1.09D-06 OVMax= 5.70D-04

 Cycle  17  Pass 1  IDiag  1:
 RMSU=  4.47D-07    CP:  6.51D-01  5.57D-01  7.99D-01  9.54D-01  5.27D-01
                    CP:  1.04D+00  1.39D+00  1.42D+00  1.32D+00  1.88D+00
                    CP:  1.79D+00  2.14D+00  2.42D+00  2.85D+00  2.49D+00
                    CP:  1.55D+00
 E= -2105.59649772904     Delta-E=       -0.000000442128 Rises=F Damp=F
 DIIS: error= 1.12D-05 at cycle  17 NSaved=  17.
 NSaved=17 IEnMin=17 EnMin= -2105.59649772904     IErMin=17 ErrMin= 1.12D-05
 ErrMax= 1.12D-05  0.00D+00 EMaxC= 1.00D-01 BMatC= 7.06D-08 BMatP= 1.75D-07
 IDIUse=1 WtCom= 1.00D+00 WtEn= 0.00D+00
 Coeff-Com:  0.943D-05-0.103D-04 0.738D-05-0.813D-06-0.852D-04-0.380D-03
 Coeff-Com:  0.687D-03 0.232D-02 0.266D-03-0.210D-01-0.192D-01 0.704D-01
 Coeff-Com:  0.113D+00-0.471D-01-0.438D+00-0.109D+00 0.145D+01
 Coeff:      0.943D-05-0.103D-04 0.738D-05-0.813D-06-0.852D-04-0.380D-03
 Coeff:      0.687D-03 0.232D-02 0.266D-03-0.210D-01-0.192D-01 0.704D-01
 Coeff:      0.113D+00-0.471D-01-0.438D+00-0.109D+00 0.145D+01
 Gap=     0.301 Goal=   None    Shift=    0.000
 Gap=     0.300 Goal=   None    Shift=    0.000
 RMSDP=1.19D-06 MaxDP=1.00D-04 DE=-4.42D-07 OVMax= 3.90D-04

 Cycle  18  Pass 1  IDiag  1:
 RMSU=  2.97D-07    CP:  6.51D-01  5.57D-01  7.99D-01  9.54D-01  5.27D-01
                    CP:  1.04D+00  1.39D+00  1.42D+00  1.32D+00  1.88D+00
                    CP:  1.80D+00  2.17D+00  2.50D+00  3.00D+00  3.00D+00
                    CP:  2.39D+00  1.98D+00
 E= -2105.59649792519     Delta-E=       -0.000000196146 Rises=F Damp=F
 DIIS: error= 6.38D-06 at cycle  18 NSaved=  18.
 NSaved=18 IEnMin=18 EnMin= -2105.59649792519     IErMin=18 ErrMin= 6.38D-06
 ErrMax= 6.38D-06  0.00D+00 EMaxC= 1.00D-01 BMatC= 2.73D-08 BMatP= 7.06D-08
 IDIUse=1 WtCom= 1.00D+00 WtEn= 0.00D+00
 Coeff-Com:  0.771D-05-0.665D-05 0.159D-05-0.496D-06-0.515D-04-0.213D-03
 Coeff-Com:  0.674D-04 0.107D-02 0.117D-02-0.365D-02-0.108D-01-0.491D-02
 Coeff-Com:  0.542D-01 0.114D+00-0.170D+00-0.402D+00 0.197D+00 0.122D+01
 Coeff:      0.771D-05-0.665D-05 0.159D-05-0.496D-06-0.515D-04-0.213D-03
 Coeff:      0.674D-04 0.107D-02 0.117D-02-0.365D-02-0.108D-01-0.491D-02
 Coeff:      0.542D-01 0.114D+00-0.170D+00-0.402D+00 0.197D+00 0.122D+01
 Gap=     0.301 Goal=   None    Shift=    0.000
 Gap=     0.300 Goal=   None    Shift=    0.000
 RMSDP=7.48D-07 MaxDP=5.65D-05 DE=-1.96D-07 OVMax= 2.22D-04

 Cycle  19  Pass 1  IDiag  1:
 RMSU=  3.49D-07    CP:  6.51D-01  5.57D-01  7.99D-01  9.54D-01  5.27D-01
                    CP:  1.04D+00  1.39D+00  1.42D+00  1.32D+00  1.88D+00
                    CP:  1.80D+00  2.18D+00  2.54D+00  3.00D+00  3.00D+00
                    CP:  2.91D+00  2.85D+00  2.08D+00
 E= -2105.59649798979     Delta-E=       -0.000000064606 Rises=F Damp=F
 DIIS: error= 3.35D-06 at cycle  19 NSaved=  19.
 NSaved=19 IEnMin=19 EnMin= -2105.59649798979     IErMin=19 ErrMin= 3.35D-06
 ErrMax= 3.35D-06  0.00D+00 EMaxC= 1.00D-01 BMatC= 8.78D-09 BMatP= 2.73D-08
 IDIUse=1 WtCom= 1.00D+00 WtEn= 0.00D+00
 Coeff-Com:  0.561D-05-0.696D-05-0.108D-05-0.409D-06-0.101D-04 0.259D-04
 Coeff-Com: -0.192D-03-0.262D-03 0.581D-03 0.509D-02 0.153D-02-0.231D-01
 Coeff-Com: -0.132D-01 0.594D-01 0.705D-01-0.145D+00-0.402D+00 0.559D+00
 Coeff-Com:  0.888D+00
 Coeff:      0.561D-05-0.696D-05-0.108D-05-0.409D-06-0.101D-04 0.259D-04
 Coeff:     -0.192D-03-0.262D-03 0.581D-03 0.509D-02 0.153D-02-0.231D-01
 Coeff:     -0.132D-01 0.594D-01 0.705D-01-0.145D+00-0.402D+00 0.559D+00
 Coeff:      0.888D+00
 Gap=     0.301 Goal=   None    Shift=    0.000
 Gap=     0.300 Goal=   None    Shift=    0.000
 RMSDP=3.75D-07 MaxDP=2.61D-05 DE=-6.46D-08 OVMax= 1.19D-04

 Cycle  20  Pass 1  IDiag  1:
 RMSU=  1.93D-07    CP:  6.51D-01  5.57D-01  7.99D-01  9.54D-01  5.27D-01
                    CP:  1.04D+00  1.39D+00  1.42D+00  1.32D+00  1.88D+00
                    CP:  1.80D+00  2.18D+00  2.55D+00  3.00D+00  3.00D+00
                    CP:  3.00D+00  3.00D+00  2.78D+00  1.31D+00
 E= -2105.59649800610     Delta-E=       -0.000000016306 Rises=F Damp=F
 DIIS: error= 1.98D-06 at cycle  20 NSaved=  20.
 NSaved=20 IEnMin=20 EnMin= -2105.59649800610     IErMin=20 ErrMin= 1.98D-06
 ErrMax= 1.98D-06  0.00D+00 EMaxC= 1.00D-01 BMatC= 2.05D-09 BMatP= 8.78D-09
 IDIUse=1 WtCom= 1.00D+00 WtEn= 0.00D+00
 Coeff-Com:  0.498D-06-0.117D-05-0.642D-06-0.164D-06 0.501D-05 0.406D-04
 Coeff-Com: -0.618D-05-0.262D-03-0.163D-03 0.107D-02 0.224D-02 0.110D-02
 Coeff-Com: -0.903D-02-0.179D-01 0.259D-01 0.530D-01-0.498D-01-0.176D+00
 Coeff-Com:  0.755D-01 0.109D+01
 Coeff:      0.498D-06-0.117D-05-0.642D-06-0.164D-06 0.501D-05 0.406D-04
 Coeff:     -0.618D-05-0.262D-03-0.163D-03 0.107D-02 0.224D-02 0.110D-02
 Coeff:     -0.903D-02-0.179D-01 0.259D-01 0.530D-01-0.498D-01-0.176D+00
 Coeff:      0.755D-01 0.109D+01
 Gap=     0.301 Goal=   None    Shift=    0.000
 Gap=     0.300 Goal=   None    Shift=    0.000
 RMSDP=1.46D-07 MaxDP=1.11D-05 DE=-1.63D-08 OVMax= 4.47D-05

 Cycle  21  Pass 1  IDiag  1:
 Restarting incremental Fock formation.
 E= -2105.59649801016     Delta-E=       -0.000000004058 Rises=F Damp=F
 DIIS: error= 1.41D-06 at cycle  21 NSaved=  20.
 NSaved=20 IEnMin=20 EnMin= -2105.59649801016     IErMin=20 ErrMin= 1.41D-06
 ErrMax= 1.41D-06  0.00D+00 EMaxC= 1.00D-01 BMatC= 9.59D-10 BMatP= 2.05D-09
 IDIUse=1 WtCom= 1.00D+00 WtEn= 0.00D+00
 Coeff-Com: -0.166D-05 0.200D-05 0.310D-06 0.663D-05 0.362D-05 0.695D-04
 Coeff-Com: -0.602D-05-0.277D-03-0.147D-02-0.300D-04 0.819D-02 0.275D-02
 Coeff-Com: -0.228D-01-0.198D-01 0.586D-01 0.123D+00-0.228D+00-0.285D+00
 Coeff-Com:  0.296D+00 0.107D+01
 Coeff:     -0.166D-05 0.200D-05 0.310D-06 0.663D-05 0.362D-05 0.695D-04
 Coeff:     -0.602D-05-0.277D-03-0.147D-02-0.300D-04 0.819D-02 0.275D-02
 Coeff:     -0.228D-01-0.198D-01 0.586D-01 0.123D+00-0.228D+00-0.285D+00
 Coeff:      0.296D+00 0.107D+01
 Gap=     0.301 Goal=   None    Shift=    0.000
 Gap=     0.300 Goal=   None    Shift=    0.000
 RMSDP=1.01D-07 MaxDP=7.70D-06 DE=-4.06D-09 OVMax= 3.37D-05

 Cycle  22  Pass 1  IDiag  1:
 RMSU=  1.01D-07    CP:  1.00D+00
 E= -2105.59649801220     Delta-E=       -0.000000002042 Rises=F Damp=F
 DIIS: error= 9.39D-07 at cycle  22 NSaved=  20.
 NSaved=20 IEnMin=20 EnMin= -2105.59649801220     IErMin=20 ErrMin= 9.39D-07
 ErrMax= 9.39D-07  0.00D+00 EMaxC= 1.00D-01 BMatC= 3.60D-10 BMatP= 9.59D-10
 IDIUse=1 WtCom= 1.00D+00 WtEn= 0.00D+00
 Coeff-Com:  0.198D-06 0.748D-06-0.558D-06-0.152D-04-0.347D-06 0.992D-04
 Coeff-Com:  0.156D-04-0.301D-03-0.882D-03-0.138D-02 0.313D-02 0.914D-02
 Coeff-Com: -0.864D-02-0.197D-01 0.210D-01 0.625D-01-0.627D-01-0.505D+00
 Coeff-Com:  0.174D+00 0.133D+01
 Coeff:      0.198D-06 0.748D-06-0.558D-06-0.152D-04-0.347D-06 0.992D-04
 Coeff:      0.156D-04-0.301D-03-0.882D-03-0.138D-02 0.313D-02 0.914D-02
 Coeff:     -0.864D-02-0.197D-01 0.210D-01 0.625D-01-0.627D-01-0.505D+00
 Coeff:      0.174D+00 0.133D+01
 Gap=     0.301 Goal=   None    Shift=    0.000
 Gap=     0.300 Goal=   None    Shift=    0.000
 RMSDP=8.84D-08 MaxDP=7.62D-06 DE=-2.04D-09 OVMax= 3.05D-05

 Cycle  23  Pass 1  IDiag  1:
 RMSU=  3.26D-08    CP:  1.00D+00  1.81D+00
 E= -2105.59649801325     Delta-E=       -0.000000001052 Rises=F Damp=F
 DIIS: error= 4.46D-07 at cycle  23 NSaved=  20.
 NSaved=20 IEnMin=20 EnMin= -2105.59649801325     IErMin=20 ErrMin= 4.46D-07
 ErrMax= 4.46D-07  0.00D+00 EMaxC= 1.00D-01 BMatC= 9.93D-11 BMatP= 3.60D-10
 IDIUse=1 WtCom= 1.00D+00 WtEn= 0.00D+00
 Coeff-Com: -0.162D-07-0.187D-05-0.204D-05-0.139D-04 0.235D-04 0.592D-04
 Coeff-Com:  0.179D-03-0.987D-04-0.133D-02-0.206D-03 0.384D-02 0.410D-02
 Coeff-Com: -0.118D-01-0.239D-01 0.552D-01 0.527D-01-0.150D+00-0.246D+00
 Coeff-Com:  0.223D+00 0.109D+01
 Coeff:     -0.162D-07-0.187D-05-0.204D-05-0.139D-04 0.235D-04 0.592D-04
 Coeff:      0.179D-03-0.987D-04-0.133D-02-0.206D-03 0.384D-02 0.410D-02
 Coeff:     -0.118D-01-0.239D-01 0.552D-01 0.527D-01-0.150D+00-0.246D+00
 Coeff:      0.223D+00 0.109D+01
 Gap=     0.301 Goal=   None    Shift=    0.000
 Gap=     0.300 Goal=   None    Shift=    0.000
 RMSDP=3.96D-08 MaxDP=3.53D-06 DE=-1.05D-09 OVMax= 1.24D-05

 Cycle  24  Pass 1  IDiag  1:
 RMSU=  1.50D-08    CP:  1.00D+00  2.13D+00  1.56D+00
 E= -2105.59649801347     Delta-E=       -0.000000000225 Rises=F Damp=F
 DIIS: error= 2.11D-07 at cycle  24 NSaved=  20.
 NSaved=20 IEnMin=20 EnMin= -2105.59649801347     IErMin=20 ErrMin= 2.11D-07
 ErrMax= 2.11D-07  0.00D+00 EMaxC= 1.00D-01 BMatC= 3.36D-11 BMatP= 9.93D-11
 IDIUse=1 WtCom= 1.00D+00 WtEn= 0.00D+00
 Coeff-Com: -0.380D-06 0.311D-05-0.732D-05-0.201D-04 0.402D-04 0.198D-03
 Coeff-Com:  0.173D-03-0.191D-03-0.106D-02-0.160D-02 0.393D-02 0.352D-02
 Coeff-Com: -0.119D-01-0.888D-02 0.336D-01 0.137D+00-0.134D+00-0.423D+00
 Coeff-Com:  0.350D+00 0.105D+01
 Coeff:     -0.380D-06 0.311D-05-0.732D-05-0.201D-04 0.402D-04 0.198D-03
 Coeff:      0.173D-03-0.191D-03-0.106D-02-0.160D-02 0.393D-02 0.352D-02
 Coeff:     -0.119D-01-0.888D-02 0.336D-01 0.137D+00-0.134D+00-0.423D+00
 Coeff:      0.350D+00 0.105D+01
 Gap=     0.301 Goal=   None    Shift=    0.000
 Gap=     0.300 Goal=   None    Shift=    0.000
 RMSDP=2.35D-08 MaxDP=2.00D-06 DE=-2.25D-10 OVMax= 7.42D-06

 Cycle  25  Pass 1  IDiag  1:
 RMSU=  7.55D-09    CP:  1.00D+00  2.27D+00  2.02D+00  1.56D+00
 E= -2105.59649801354     Delta-E=       -0.000000000067 Rises=F Damp=F
 DIIS: error= 6.58D-08 at cycle  25 NSaved=  20.
 NSaved=20 IEnMin=20 EnMin= -2105.59649801354     IErMin=20 ErrMin= 6.58D-08
 ErrMax= 6.58D-08  0.00D+00 EMaxC= 1.00D-01 BMatC= 5.60D-12 BMatP= 3.36D-11
 IDIUse=1 WtCom= 1.00D+00 WtEn= 0.00D+00
 Coeff-Com:  0.183D-06 0.131D-05-0.601D-05-0.315D-05 0.648D-05 0.605D-04
 Coeff-Com:  0.191D-03-0.191D-03-0.866D-03 0.313D-04 0.273D-02 0.143D-02
 Coeff-Com: -0.122D-01-0.139D-02 0.588D-01 0.232D-01-0.137D+00-0.154D+00
 Coeff-Com:  0.228D+00 0.992D+00
 Coeff:      0.183D-06 0.131D-05-0.601D-05-0.315D-05 0.648D-05 0.605D-04
 Coeff:      0.191D-03-0.191D-03-0.866D-03 0.313D-04 0.273D-02 0.143D-02
 Coeff:     -0.122D-01-0.139D-02 0.588D-01 0.232D-01-0.137D+00-0.154D+00
 Coeff:      0.228D+00 0.992D+00
 Gap=     0.301 Goal=   None    Shift=    0.000
 Gap=     0.300 Goal=   None    Shift=    0.000
 RMSDP=7.88D-09 MaxDP=5.63D-07 DE=-6.73D-11 OVMax= 2.10D-06

 SCF Done:  E(UwB97X) =  -2105.59649801     A.U. after   25 cycles
            NFock= 25  Conv=0.79D-08     -V/T= 2.0017
 <Sx>= 0.0000 <Sy>= 0.0000 <Sz>= 2.5000 <S**2>= 8.7525 S= 2.5004
 <L.S>= 0.000000000000E+00
 KE= 2.102126062384D+03 PE=-9.245909729305D+03 EE= 2.898877014253D+03
 Annihilation of the first spin contaminant:
 S**2 before annihilation     8.7525,   after     8.7500
 Leave Link  502 at Wed Sep 27 15:04:34 2017, MaxMem=  3221225472 cpu:            7524.9 elap:             315.0
 (Enter /nopt/nrel/apps/gaussian/G16.sandy/g16/l801.exe)
 DoSCS=F DFT=T ScalE2(SS,OS)=  1.000000  1.000000
 ExpMin= 3.96D-02 ExpMax= 2.44D+05 ExpMxC= 8.22D+03 IAcc=3 IRadAn=         5 AccDes= 0.00D+00
 HarFok:  IExCor=  205 AccDes= 0.00D+00 IRadAn=         5 IDoV=-2 UseB2=F ITyADJ=14
 ICtDFT= 12500011 ScaDFX=  1.000000  1.000000  1.000000  1.000000
 GSVD:  LWork=       -1140 too small for GESVD, short by        4950 words or        4950 for optimal perf.
 Largest valence mixing into a core orbital is  5.70D-04
 Largest core mixing into a valence orbital is  1.12D-04
 Largest valence mixing into a core orbital is  1.93D-03
 Largest core mixing into a valence orbital is  3.23D-04
 Range of M.O.s used for correlation:    31   520
 NBasis=   520 NAE=    90 NBE=    85 NFC=    30 NFV=     0
 NROrb=    490 NOA=    60 NOB=    55 NVA=   430 NVB=   435

 **** Warning!!: The largest alpha MO coefficient is  0.12446604D+02


 **** Warning!!: The largest beta MO coefficient is  0.12861075D+02

 Leave Link  801 at Wed Sep 27 15:04:35 2017, MaxMem=  3221225472 cpu:              10.3 elap:               0.5
 (Enter /nopt/nrel/apps/gaussian/G16.sandy/g16/linda-exe/l914.exel)
 UHF ground state
 Two-electron integrals replicated using symmetry.
 MDV=  3221225472 DFT=T DoStab=F Mixed=T DoRPA=T DoScal=F NonHer=T
 Making orbital integer symmetry assigments:
 Orbital symmetries:
 Alpha Orbitals:
       Occupied  (A) (A) (A) (A) (A) (A) (A) (A) (A) (A) (A) (A)
                 (A) (A) (A) (A) (A) (A) (A) (A) (A) (A) (A) (A)
                 (A) (A) (A) (A) (A) (A) (A) (A) (A) (A) (A) (A)
                 (A) (A) (A) (A) (A) (A) (A) (A) (A) (A) (A) (A)
                 (A) (A) (A) (A) (A) (A) (A) (A) (A) (A) (A) (A)
                 (A) (A) (A) (A) (A) (A) (A) (A) (A) (A) (A) (A)
                 (A) (A) (A) (A) (A) (A) (A) (A) (A) (A) (A) (A)
                 (A) (A) (A) (A) (A) (A)
       Virtual   (A) (A) (A) (A) (A) (A) (A) (A) (A) (A) (A) (A)
                 (A) (A) (A) (A) (A) (A) (A) (A) (A) (A) (A) (A)
                 (A) (A) (A) (A) (A) (A) (A) (A) (A) (A) (A) (A)
                 (A) (A) (A) (A) (A) (A) (A) (A) (A) (A) (A) (A)
                 (A) (A) (A) (A) (A) (A) (A) (A) (A) (A) (A) (A)
                 (A) (A) (A) (A) (A) (A) (A) (A) (A) (A) (A) (A)
                 (A) (A) (A) (A) (A) (A) (A) (A) (A) (A) (A) (A)
                 (A) (A) (A) (A) (A) (A) (A) (A) (A) (A) (A) (A)
                 (A) (A) (A) (A) (A) (A) (A) (A) (A) (A) (A) (A)
                 (A) (A) (A) (A) (A) (A) (A) (A) (A) (A) (A) (A)
                 (A) (A) (A) (A) (A) (A) (A) (A) (A) (A) (A) (A)
                 (A) (A) (A) (A) (A) (A) (A) (A) (A) (A) (A) (A)
                 (A) (A) (A) (A) (A) (A) (A) (A) (A) (A) (A) (A)
                 (A) (A) (A) (A) (A) (A) (A) (A) (A) (A) (A) (A)
                 (A) (A) (A) (A) (A) (A) (A) (A) (A) (A) (A) (A)
                 (A) (A) (A) (A) (A) (A) (A) (A) (A) (A) (A) (A)
                 (A) (A) (A) (A) (A) (A) (A) (A) (A) (A) (A) (A)
                 (A) (A) (A) (A) (A) (A) (A) (A) (A) (A) (A) (A)
                 (A) (A) (A) (A) (A) (A) (A) (A) (A) (A) (A) (A)
                 (A) (A) (A) (A) (A) (A) (A) (A) (A) (A) (A) (A)
                 (A) (A) (A) (A) (A) (A) (A) (A) (A) (A) (A) (A)
                 (A) (A) (A) (A) (A) (A) (A) (A) (A) (A) (A) (A)
                 (A) (A) (A) (A) (A) (A) (A) (A) (A) (A) (A) (A)
                 (A) (A) (A) (A) (A) (A) (A) (A) (A) (A) (A) (A)
                 (A) (A) (A) (A) (A) (A) (A) (A) (A) (A) (A) (A)
                 (A) (A) (A) (A) (A) (A) (A) (A) (A) (A) (A) (A)
                 (A) (A) (A) (A) (A) (A) (A) (A) (A) (A) (A) (A)
                 (A) (A) (A) (A) (A) (A) (A) (A) (A) (A) (A) (A)
                 (A) (A) (A) (A) (A) (A) (A) (A) (A) (A) (A) (A)
                 (A) (A) (A) (A) (A) (A) (A) (A) (A) (A) (A) (A)
                 (A) (A) (A) (A) (A) (A) (A) (A) (A) (A) (A) (A)
                 (A) (A) (A) (A) (A) (A) (A) (A) (A) (A) (A) (A)
                 (A) (A) (A) (A) (A) (A) (A) (A) (A) (A) (A) (A)
                 (A) (A) (A) (A) (A) (A) (A) (A) (A) (A) (A) (A)
                 (A) (A) (A) (A) (A) (A) (A) (A) (A) (A) (A) (A)
                 (A) (A) (A) (A) (A) (A) (A) (A) (A) (A)
 Beta  Orbitals:
       Occupied  (A) (A) (A) (A) (A) (A) (A) (A) (A) (A) (A) (A)
                 (A) (A) (A) (A) (A) (A) (A) (A) (A) (A) (A) (A)
                 (A) (A) (A) (A) (A) (A) (A) (A) (A) (A) (A) (A)
                 (A) (A) (A) (A) (A) (A) (A) (A) (A) (A) (A) (A)
                 (A) (A) (A) (A) (A) (A) (A) (A) (A) (A) (A) (A)
                 (A) (A) (A) (A) (A) (A) (A) (A) (A) (A) (A) (A)
                 (A) (A) (A) (A) (A) (A) (A) (A) (A) (A) (A) (A)
                 (A)
       Virtual   (A) (A) (A) (A) (A) (A) (A) (A) (A) (A) (A) (A)
                 (A) (A) (A) (A) (A) (A) (A) (A) (A) (A) (A) (A)
                 (A) (A) (A) (A) (A) (A) (A) (A) (A) (A) (A) (A)
                 (A) (A) (A) (A) (A) (A) (A) (A) (A) (A) (A) (A)
                 (A) (A) (A) (A) (A) (A) (A) (A) (A) (A) (A) (A)
                 (A) (A) (A) (A) (A) (A) (A) (A) (A) (A) (A) (A)
                 (A) (A) (A) (A) (A) (A) (A) (A) (A) (A) (A) (A)
                 (A) (A) (A) (A) (A) (A) (A) (A) (A) (A) (A) (A)
                 (A) (A) (A) (A) (A) (A) (A) (A) (A) (A) (A) (A)
                 (A) (A) (A) (A) (A) (A) (A) (A) (A) (A) (A) (A)
                 (A) (A) (A) (A) (A) (A) (A) (A) (A) (A) (A) (A)
                 (A) (A) (A) (A) (A) (A) (A) (A) (A) (A) (A) (A)
                 (A) (A) (A) (A) (A) (A) (A) (A) (A) (A) (A) (A)
                 (A) (A) (A) (A) (A) (A) (A) (A) (A) (A) (A) (A)
                 (A) (A) (A) (A) (A) (A) (A) (A) (A) (A) (A) (A)
                 (A) (A) (A) (A) (A) (A) (A) (A) (A) (A) (A) (A)
                 (A) (A) (A) (A) (A) (A) (A) (A) (A) (A) (A) (A)
                 (A) (A) (A) (A) (A) (A) (A) (A) (A) (A) (A) (A)
                 (A) (A) (A) (A) (A) (A) (A) (A) (A) (A) (A) (A)
                 (A) (A) (A) (A) (A) (A) (A) (A) (A) (A) (A) (A)
                 (A) (A) (A) (A) (A) (A) (A) (A) (A) (A) (A) (A)
                 (A) (A) (A) (A) (A) (A) (A) (A) (A) (A) (A) (A)
                 (A) (A) (A) (A) (A) (A) (A) (A) (A) (A) (A) (A)
                 (A) (A) (A) (A) (A) (A) (A) (A) (A) (A) (A) (A)
                 (A) (A) (A) (A) (A) (A) (A) (A) (A) (A) (A) (A)
                 (A) (A) (A) (A) (A) (A) (A) (A) (A) (A) (A) (A)
                 (A) (A) (A) (A) (A) (A) (A) (A) (A) (A) (A) (A)
                 (A) (A) (A) (A) (A) (A) (A) (A) (A) (A) (A) (A)
                 (A) (A) (A) (A) (A) (A) (A) (A) (A) (A) (A) (A)
                 (A) (A) (A) (A) (A) (A) (A) (A) (A) (A) (A) (A)
                 (A) (A) (A) (A) (A) (A) (A) (A) (A) (A) (A) (A)
                 (A) (A) (A) (A) (A) (A) (A) (A) (A) (A) (A) (A)
                 (A) (A) (A) (A) (A) (A) (A) (A) (A) (A) (A) (A)
                 (A) (A) (A) (A) (A) (A) (A) (A) (A) (A) (A) (A)
                 (A) (A) (A) (A) (A) (A) (A) (A) (A) (A) (A) (A)
                 (A) (A) (A) (A) (A) (A) (A) (A) (A) (A) (A) (A)
                 (A) (A) (A)
    12 initial guesses have been made.
 Convergence on wavefunction:    0.001000000000000
 Davidson Disk Diagonalization:  ConvIn= 1.00D-03 SkipCon=T Conv= 1.00D-03.
 Max sub-space:  2000 roots to seek:    12 dimension of matrix:        49725
 Iteration     1 Dimension    12 NMult     0 NNew     12
 CISAX will form    12 AO SS matrices at one time.
 NMat=    12 NSing=    12 JSym2X= 0.
 FoFJK:  IHMeth= 1 ICntrl=       0 DoSepK=T KAlg= 0 I1Cent=           0 FoldK=F
 IRaf=         1 NMat=      24 IRICut=       1 DoRegI=T DoRafI=F ISym2E= 0 IDoP0=3 IntGTp=3.
 FoFCou: FMM=F IPFlag=           0 FMFlag=      100000 FMFlg1=           0
         NFxFlg=           0 DoJE=F BraDBF=F KetDBF=F FulRan=T
         wScrn=  0.000000 ICntrl=       500 IOpCl=  0 I1Cent=           0 NGrid=           0
         NMat0=   12 NMatS0=     12 NMatT0=    0 NMatD0=   12 NMtDS0=    0 NMtDT0=    0
 Symmetry not used in FoFCou.
 New state      1 was old state      2
 New state      2 was old state      5
 New state      3 was old state      4
 Excitation Energies [eV] at current iteration:
 Root      1 :     3.218238888935633
 Root      2 :     3.235594041527585
 Root      3 :     3.970330899174165
 Root      4 :     4.180913450241152
 Root      5 :     4.616695576720413
 Root      6 :     4.848754083223386
 Root      7 :     5.419654449271301
 Root      8 :     5.615419043082053
 Root      9 :     6.034287983021376
 Root     10 :     6.052163405356529
 Root     11 :     6.155881828563943
 Root     12 :     6.228059411212586
 Iteration     2 Dimension    18 NMult    12 NNew      6
 CISAX will form     6 AO SS matrices at one time.
 NMat=     6 NSing=     6 JSym2X= 0.
 Root      1 not converged, maximum delta is    0.102209423564770
 Root      2 not converged, maximum delta is    0.096485621312542
 Root      3 not converged, maximum delta is    0.109281464221015
 Excitation Energies [eV] at current iteration:
 Root      1 :     2.820246123612029   Change is   -0.397992765323604
 Root      2 :     2.839871297105311   Change is   -0.395722744422273
 Root      3 :     3.574237619821034   Change is   -0.396093279353131
 Iteration     3 Dimension    24 NMult    18 NNew      6
 CISAX will form     6 AO SS matrices at one time.
 NMat=     6 NSing=     6 JSym2X= 0.
 Root      1 not converged, maximum delta is    0.022168550524227
 Root      2 not converged, maximum delta is    0.024996334725134
 Root      3 not converged, maximum delta is    0.035450942194221
 Excitation Energies [eV] at current iteration:
 Root      1 :     2.784692725470962   Change is   -0.035553398141067
 Root      2 :     2.803007176930590   Change is   -0.036864120174722
 Root      3 :     3.522919324179389   Change is   -0.051318295641645
 Iteration     4 Dimension    30 NMult    24 NNew      6
 CISAX will form     6 AO SS matrices at one time.
 NMat=     6 NSing=     6 JSym2X= 0.
 Root      1 not converged, maximum delta is    0.038640505503802
 Root      2 not converged, maximum delta is    0.036412005077568
 Root      3 not converged, maximum delta is    0.012820708494308
 Excitation Energies [eV] at current iteration:
 Root      1 :     2.758602275335786   Change is   -0.026090450135176
 Root      2 :     2.779790651495551   Change is   -0.023216525435038
 Root      3 :     3.514158354726048   Change is   -0.008760969453341
 Iteration     5 Dimension    36 NMult    30 NNew      6
 CISAX will form     6 AO SS matrices at one time.
 NMat=     6 NSing=     6 JSym2X= 0.
 Root      1 not converged, maximum delta is    0.026524506709461
 Root      2 not converged, maximum delta is    0.029800900587430
 Root      3 not converged, maximum delta is    0.007650440489463
 Excitation Energies [eV] at current iteration:
 Root      1 :     2.744100541895356   Change is   -0.014501733440430
 Root      2 :     2.766275868744687   Change is   -0.013514782750864
 Root      3 :     3.512467174061031   Change is   -0.001691180665017
 Iteration     6 Dimension    42 NMult    36 NNew      6
 CISAX will form     6 AO SS matrices at one time.
 NMat=     6 NSing=     6 JSym2X= 0.
 Root      1 not converged, maximum delta is    0.028237451806322
 Root      2 not converged, maximum delta is    0.027740529927245
 Root      3 not converged, maximum delta is    0.012175416412552
 Excitation Energies [eV] at current iteration:
 Root      1 :     2.734182367781359   Change is   -0.009918174113996
 Root      2 :     2.756328170731414   Change is   -0.009947698013273
 Root      3 :     3.511855156531735   Change is   -0.000612017529295
 Iteration     7 Dimension    48 NMult    42 NNew      6
 CISAX will form     6 AO SS matrices at one time.
 NMat=     6 NSing=     6 JSym2X= 0.
 Root      1 not converged, maximum delta is    0.018258856643574
 Root      2 not converged, maximum delta is    0.017510557246461
 Root      3 not converged, maximum delta is    0.446127067815473
 Excitation Energies [eV] at current iteration:
 Root      1 :     2.729727761333886   Change is   -0.004454606447473
 Root      2 :     2.752026635941332   Change is   -0.004301534790082
 Root      3 :     3.494527323145898   Change is   -0.017327833385838
 Iteration     8 Dimension    54 NMult    48 NNew      6
 CISAX will form     6 AO SS matrices at one time.
 NMat=     6 NSing=     6 JSym2X= 0.
 Root      1 not converged, maximum delta is    0.012347656395456
 Root      2 not converged, maximum delta is    0.011241166053621
 Root      3 not converged, maximum delta is    0.194033050148777
 Excitation Energies [eV] at current iteration:
 Root      1 :     2.727894305608970   Change is   -0.001833455724916
 Root      2 :     2.750018277260784   Change is   -0.002008358680548
 Root      3 :     3.418896271181855   Change is   -0.075631051964042
 Iteration     9 Dimension    60 NMult    54 NNew      6
 CISAX will form     6 AO SS matrices at one time.
 NMat=     6 NSing=     6 JSym2X= 0.
 Root      1 not converged, maximum delta is    0.007518924580279
 Root      2 not converged, maximum delta is    0.009585001469495
 Root      3 not converged, maximum delta is    0.060576165459619
 Excitation Energies [eV] at current iteration:
 Root      1 :     2.726967192734318   Change is   -0.000927112874652
 Root      2 :     2.749051136791844   Change is   -0.000967140468941
 Root      3 :     3.379563328519902   Change is   -0.039332942661953
 Iteration    10 Dimension    66 NMult    60 NNew      6
 CISAX will form     6 AO SS matrices at one time.
 NMat=     6 NSing=     6 JSym2X= 0.
 Root      1 not converged, maximum delta is    0.001841738343984
 Root      2 not converged, maximum delta is    0.002680566413802
 Root      3 not converged, maximum delta is    0.014806479160951
 Excitation Energies [eV] at current iteration:
 Root      1 :     2.726745261589152   Change is   -0.000221931145166
 Root      2 :     2.748817605326850   Change is   -0.000233531464994
 Root      3 :     3.368809978450466   Change is   -0.010753350069436
 Iteration    11 Dimension    72 NMult    66 NNew      6
 CISAX will form     6 AO SS matrices at one time.
 NMat=     6 NSing=     6 JSym2X= 0.
 Root      1 has converged.
 Root      2 has converged.
 Root      3 not converged, maximum delta is    0.010986909965496
 Excitation Energies [eV] at current iteration:
 Root      1 :     2.726697638563584   Change is   -0.000047623025568
 Root      2 :     2.748774798426595   Change is   -0.000042806900255
 Root      3 :     3.366190752384535   Change is   -0.002619226065932
 Iteration    12 Dimension    74 NMult    72 NNew      2
 CISAX will form     2 AO SS matrices at one time.
 NMat=     2 NSing=     2 JSym2X= 0.
 Root      1 has converged.
 Root      2 has converged.
 Root      3 not converged, maximum delta is    0.002479366481476
 Excitation Energies [eV] at current iteration:
 Root      1 :     2.726690783260636   Change is   -0.000006855302948
 Root      2 :     2.748774535161598   Change is   -0.000000263264998
 Root      3 :     3.365684857586368   Change is   -0.000505894798167
 Iteration    13 Dimension    76 NMult    74 NNew      2
 CISAX will form     2 AO SS matrices at one time.
 NMat=     2 NSing=     2 JSym2X= 0.
 Root      1 has converged.
 Root      2 has converged.
 Root      3 not converged, maximum delta is    0.001416949353647
 Excitation Energies [eV] at current iteration:
 Root      1 :     2.726689384224093   Change is   -0.000001399036543
 Root      2 :     2.748774430640117   Change is   -0.000000104521481
 Root      3 :     3.365550549417138   Change is   -0.000134308169230
 Iteration    14 Dimension    78 NMult    76 NNew      2
 CISAX will form     2 AO SS matrices at one time.
 NMat=     2 NSing=     2 JSym2X= 0.
 Root      1 has converged.
 Root      2 has converged.
 Root      3 not converged, maximum delta is    0.001046742424844
 Excitation Energies [eV] at current iteration:
 Root      1 :     2.726689135042655   Change is   -0.000000249181438
 Root      2 :     2.748774295026747   Change is   -0.000000135613370
 Root      3 :     3.365519890144704   Change is   -0.000030659272435
 Iteration    15 Dimension    80 NMult    78 NNew      2
 CISAX will form     2 AO SS matrices at one time.
 NMat=     2 NSing=     2 JSym2X= 0.
 Root      1 has converged.
 Root      2 has converged.
 Root      3 has converged.
 Excitation Energies [eV] at current iteration:
 Root      1 :     2.726689125128329   Change is   -0.000000009914326
 Root      2 :     2.748774256839401   Change is   -0.000000038187345
 Root      3 :     3.365514345767179   Change is   -0.000005544377525
 Convergence achieved on expansion vectors.
 ***********************************************************************
 Excited states from <AA,BB:AA,BB> singles matrix:
 ***********************************************************************
 
 ExtSpn:  IState=     1 X2= 1.033 Y2= 0.033 X2-Y2-1=-2.22D-16
          S2Grnd=  8.753 Ra=  0.481 Rb=  0.476 T=  0.957 S2Ext=  1.915 S2= 10.667
 ExtSpn:  IState=     2 X2= 1.032 Y2= 0.032 X2-Y2-1= 2.22D-16
          S2Grnd=  8.753 Ra=  0.481 Rb=  0.477 T=  0.956 S2Ext=  1.913 S2= 10.666
 ExtSpn:  IState=     3 X2= 1.051 Y2= 0.051 X2-Y2-1=-8.88D-16
          S2Grnd=  8.753 Ra=  0.493 Rb=  0.496 T=  0.988 S2Ext=  1.977 S2= 10.729
 1PDM for each excited state written to RWF  633
 Ground to excited state transition densities written to RWF  633
 Ground to excited state transition electric dipole moments (Au):
       state          X           Y           Z        Dip. S.      Osc.
         1         0.0224      0.0020     -0.0019      0.0005      0.0000
         2         0.0102     -0.0024      0.0014      0.0001      0.0000
         3        -0.0021      0.0035     -0.0022      0.0000      0.0000
 Ground to excited state transition velocity dipole moments (Au):
       state          X           Y           Z        Dip. S.      Osc.
         1        -0.0022      0.0002     -0.0001      0.0000      0.0000
         2        -0.0010     -0.0001      0.0010      0.0000      0.0000
         3         0.0009     -0.0004      0.0001      0.0000      0.0000
 Ground to excited state transition magnetic dipole moments (Au):
       state          X           Y           Z
         1        -0.0017      0.0053      0.0258
         2        -0.0031     -0.0069      0.0087
         3         0.0016     -0.0022     -0.0359
 Ground to excited state transition velocity quadrupole moments (Au):
       state          XX          YY          ZZ          XY          XZ          YZ
         1        -0.0028     -0.0018      0.0007      0.0007      0.0005     -0.0004
         2         0.0096      0.0041      0.0005     -0.0005     -0.0006      0.0020
         3         0.0112      0.0005     -0.0003     -0.0127     -0.0022      0.0008
 <0|del|b> * <b|rxdel|0> + <0|del|b> * <b|delr+rdel|0>
 Rotatory Strengths (R) in cgs (10**-40 erg-esu-cm/Gauss)
       state          XX          YY          ZZ    R(velocity)    E-M Angle
         1        -0.0068      0.0069      0.0145      0.0048       90.00
         2         0.0315      0.0370      0.0203      0.0296       90.00
         3        -0.0094      0.0015      0.0068     -0.0003       90.00
 1/2[<0|r|b>*<b|rxdel|0> + (<0|rxdel|b>*<b|r|0>)*]
 Rotatory Strengths (R) in cgs (10**-40 erg-esu-cm/Gauss)
       state          XX          YY          ZZ     R(length)
         1         0.0272     -0.0073      0.0339      0.0179
         2         0.0226     -0.0117     -0.0087      0.0007
         3         0.0023      0.0055     -0.0556     -0.0159
  1/2[<0|del|b>*<b|r|0> + (<0|r|b>*<b|del|0>)*] (Au)
       state          X           Y           Z        Dip. S.   Osc.(frdel)
         1        -0.0000      0.0000      0.0000      0.0000      0.0000
         2        -0.0000      0.0000      0.0000      0.0000      0.0000
         3        -0.0000     -0.0000     -0.0000      0.0000      0.0000

 Excitation energies and oscillator strengths:
 
 Excited State   1:  6.608-A      2.7267 eV  454.71 nm  f=0.0000  <S**2>=10.667
     85A -> 91A       -0.12615
     85A -> 92A        0.12144
     86A -> 91A        0.11408
     88A -> 91A       -0.26077
     88A -> 92A        0.26208
     89A -> 91A        0.21275
     89A -> 92A       -0.20984
     90A -> 91A        0.43830
     90A -> 92A       -0.11601
     82B -> 86B        0.11652
     82B -> 87B       -0.13290
     83B -> 86B       -0.12446
     84B -> 86B        0.46008
     84B -> 87B       -0.39136
     85B -> 86B       -0.22857
 This state for optimization and/or second-order correction.
 Total Energy, E(TD-HF/TD-DFT) =  -2105.49629403    
 Copying the excited state density for this state as the 1-particle RhoCI density.
 
 Excited State   2:  6.608-A      2.7488 eV  451.05 nm  f=0.0000  <S**2>=10.666
     85A -> 91A        0.11085
     86A -> 92A        0.14019
     88A -> 91A        0.24376
     88A -> 92A        0.18190
     89A -> 91A       -0.21660
     89A -> 92A       -0.15981
     90A -> 91A        0.19344
     90A -> 92A        0.48189
     82B -> 86B       -0.11840
     83B -> 87B       -0.14192
     84B -> 86B       -0.21809
     85B -> 86B       -0.38475
     85B -> 87B       -0.47616
 
 Excited State   3:  6.627-A      3.3655 eV  368.40 nm  f=0.0000  <S**2>=10.729
     85A -> 91A       -0.28725
     85A -> 92A        0.23095
     85A -> 93A        0.11139
     86A -> 91A        0.27889
     86A -> 92A       -0.12302
     86A -> 93A       -0.12210
[...]
     1  Mn   0.000002  -0.001563  -0.001050  -0.000229   0.000063  -0.000018
     2  O    0.000000  -0.000031   0.000000  -0.000002   0.000000   0.000000
     3  O   -0.000000  -0.005834   0.001722   0.002149   0.000038   0.000144
     4  C   -0.000102   0.000011   0.000000   0.000000  -0.000000   0.000000
     5  C    0.000163  -0.000000  -0.000000  -0.000000   0.000000  -0.000000
     6  C    0.000062   0.000000  -0.000000   0.000000  -0.000000   0.000000
     7  C   -0.000271  -0.000000   0.000000  -0.000000   0.000000  -0.000000
     8  C   -0.000255   0.000000   0.000000   0.000000  -0.000000  -0.000000
     9  H    0.000007   0.000000  -0.000000   0.000000  -0.000000   0.000000
    10  C    0.000391   0.000000  -0.000000   0.000000  -0.000000   0.000000
    11  H   -0.000014   0.000000  -0.000000   0.000000  -0.000000  -0.000000
    12  H   -0.000045  -0.000000   0.000000  -0.000000   0.000000   0.000000
    13  H   -0.000112   0.000000  -0.000000   0.000000  -0.000000   0.000000
    14  C    0.000000   0.062955  -0.028929  -0.031795   0.013495   0.007000
    15  C   -0.000000  -0.028929   0.047154   0.015943  -0.015738  -0.006027
    16  C    0.000000  -0.031795   0.015943   0.027078  -0.007519  -0.008377
    17  C   -0.000000   0.013495  -0.015738  -0.007519   0.018263   0.005834
    18  C    0.000000   0.007000  -0.006027  -0.008377   0.005834   0.009536
    19  H    0.000000  -0.003472   0.000764   0.002000  -0.000305  -0.000301
    20  C    0.000000  -0.007893   0.008449   0.005123  -0.010100  -0.006942
    21  H    0.000000   0.000193  -0.000404  -0.000101   0.000723   0.000132
    22  H   -0.000000   0.000535  -0.000223   0.000082   0.000245  -0.000238
    23  H    0.000000  -0.000124   0.000197   0.000077  -0.000337  -0.000286
    24  C    0.000014  -0.000002   0.000002  -0.000000   0.000000   0.000000
    25  H    0.000004   0.000000   0.000000   0.000000  -0.000000  -0.000000
    26  C   -0.000000  -0.001177  -0.008100   0.000956  -0.005074  -0.000249
    27  H    0.000000   0.000150  -0.005555  -0.000025  -0.000546   0.000001
    28  N    0.000000   0.000022   0.000053   0.000001  -0.000000  -0.000000
    29  N    0.000000   0.000459  -0.002743   0.000100  -0.000209  -0.000006
    30  C    0.000000   0.000076  -0.000368   0.000001  -0.000006  -0.000000
    31  H   -0.000000   0.000000   0.000003   0.000000  -0.000000  -0.000000
    32  H   -0.000000   0.000001  -0.000065   0.000001  -0.000002  -0.000000
    33  C    0.000000  -0.000117   0.000711   0.000006  -0.000038  -0.000001
    34  H    0.000000  -0.000011   0.000044  -0.000001   0.000004   0.000000
    35  H    0.000000   0.000004   0.000060  -0.000004   0.000022   0.000001
    36  O    0.000000   0.000230   0.000174   0.000004   0.000001   0.000000
    37  H   -0.000000   0.000015  -0.000001   0.000002  -0.000000   0.000000
    38  H   -0.000000  -0.000082  -0.000061   0.000066  -0.000004  -0.000001
              19         20         21         22         23         24
     1  Mn  -0.000249  -0.000040  -0.000010   0.000009  -0.000000  -0.000282
     2  O   -0.000001  -0.000000   0.000000   0.000000  -0.000000  -0.002397
     3  O    0.000482   0.000004   0.000003  -0.000011   0.000000  -0.000004
     4  C    0.000000   0.000000   0.000000  -0.000000   0.000000  -0.001379
     5  C   -0.000000  -0.000000  -0.000000   0.000000  -0.000000  -0.004047
     6  C    0.000000   0.000000   0.000000  -0.000000   0.000000   0.000375
     7  C   -0.000000  -0.000000  -0.000000   0.000000  -0.000000  -0.003071
     8  C    0.000000   0.000000  -0.000000   0.000000   0.000000  -0.000101
     9  H    0.000000   0.000000  -0.000000  -0.000000   0.000000   0.000040
    10  C    0.000000   0.000000   0.000000  -0.000000   0.000000   0.000525
    11  H   -0.000000   0.000000  -0.000000   0.000000   0.000000  -0.000153
    12  H   -0.000000  -0.000000   0.000000   0.000000  -0.000000  -0.000010
    13  H    0.000000   0.000000   0.000000  -0.000000   0.000000   0.000014
    14  C   -0.003472  -0.007893   0.000193   0.000535  -0.000124  -0.000002
    15  C    0.000764   0.008449  -0.000404  -0.000223   0.000197   0.000002
    16  C    0.002000   0.005123  -0.000101   0.000082   0.000077  -0.000000
    17  C   -0.000305  -0.010100   0.000723   0.000245  -0.000337   0.000000
    18  C   -0.000301  -0.006942   0.000132  -0.000238  -0.000286   0.000000
    19  H    0.000962   0.000435  -0.000003  -0.000181   0.000009  -0.000000
    20  C    0.000435   0.014937  -0.000349  -0.000710   0.000474  -0.000000
    21  H   -0.000003  -0.000349   0.000194   0.000002  -0.000020   0.000000
    22  H   -0.000181  -0.000710   0.000002   0.000687  -0.000046   0.000000
    23  H    0.000009   0.000474  -0.000020  -0.000046  -0.000177  -0.000000
    24  C   -0.000000  -0.000000   0.000000   0.000000  -0.000000   0.023493
    25  H    0.000000   0.000000  -0.000000  -0.000000   0.000000  -0.000907
    26  C    0.000041   0.000845  -0.000305  -0.000007   0.000018  -0.000002
    27  H    0.000002   0.000107  -0.000107  -0.000001   0.000005   0.000003
    28  N    0.000000   0.000000  -0.000000  -0.000000   0.000000   0.002168
    29  N    0.000008   0.000013   0.000003  -0.000000   0.000000   0.000239
    30  C    0.000000   0.000000  -0.000003  -0.000000   0.000000   0.002573
    31  H    0.000000   0.000000  -0.000000   0.000000   0.000000  -0.000587
    32  H    0.000000   0.000000  -0.000001   0.000000   0.000000  -0.000627
    33  C    0.000000   0.000002  -0.000007  -0.000000   0.000000  -0.001330
    34  H    0.000000  -0.000000   0.000001  -0.000000  -0.000000  -0.000209
    35  H   -0.000000  -0.000002   0.000012  -0.000000  -0.000000   0.000034
    36  O    0.000006  -0.000000   0.000000  -0.000000  -0.000000  -0.000007
    37  H    0.000000  -0.000000   0.000000  -0.000000  -0.000000  -0.000026
    38  H   -0.000006  -0.000000  -0.000000   0.000000   0.000000  -0.000003
              25         26         27         28         29         30
     1  Mn   0.000174  -0.001703  -0.000177  -0.014655  -0.019764  -0.003060
     2  O   -0.000180   0.000006   0.000000  -0.003703   0.000044  -0.000033
     3  O    0.000000  -0.001376  -0.000154   0.000052  -0.003839   0.000024
     4  C   -0.000069  -0.000003   0.000000  -0.000089   0.000027  -0.000014
     5  C   -0.004935   0.000003   0.000000  -0.003899   0.000024   0.000198
     6  C   -0.000048  -0.000000   0.000000   0.000130   0.000001   0.000013
     7  C   -0.000305   0.000000  -0.000000  -0.000335  -0.000000  -0.000037
     8  C    0.000007   0.000000  -0.000000  -0.000010  -0.000000  -0.000001
     9  H    0.000001  -0.000000   0.000000   0.000009   0.000000   0.000001
    10  C    0.000069  -0.000000   0.000000   0.000022   0.000000   0.000001
    11  H   -0.000048   0.000000  -0.000000  -0.000013  -0.000000  -0.000000
    12  H   -0.000001   0.000000   0.000000  -0.000000  -0.000000  -0.000000
    13  H    0.000004  -0.000000   0.000000   0.000000   0.000000   0.000000
    14  C    0.000000  -0.001177   0.000150   0.000022   0.000459   0.000076
    15  C    0.000000  -0.008100  -0.005555   0.000053  -0.002743  -0.000368
    16  C    0.000000   0.000956  -0.000025   0.000001   0.000100   0.000001
    17  C   -0.000000  -0.005074  -0.000546  -0.000000  -0.000209  -0.000006
    18  C   -0.000000  -0.000249   0.000001  -0.000000  -0.000006  -0.000000
    19  H    0.000000   0.000041   0.000002   0.000000   0.000008   0.000000
    20  C    0.000000   0.000845   0.000107   0.000000   0.000013   0.000000
    21  H   -0.000000  -0.000305  -0.000107  -0.000000   0.000003  -0.000003
    22  H   -0.000000  -0.000007  -0.000001  -0.000000  -0.000000  -0.000000
    23  H    0.000000   0.000018   0.000005   0.000000   0.000000   0.000000
    24  C   -0.000907  -0.000002   0.000003   0.002168   0.000239   0.002573
    25  H    0.010759  -0.000000  -0.000002   0.000474  -0.000073  -0.001563
    26  C   -0.000000   0.024955  -0.000587  -0.000002   0.005113  -0.000502
    27  H   -0.000002  -0.000587   0.012729  -0.000094  -0.000108   0.000318
    28  N    0.000474  -0.000002  -0.000094   0.046134  -0.005343  -0.010840
    29  N   -0.000073   0.005113  -0.000108  -0.005343   0.048363   0.007055
    30  C   -0.001563  -0.000502   0.000318  -0.010840   0.007055   0.053002
    31  H    0.001233   0.000016  -0.000042   0.000722  -0.000328  -0.001122
    32  H    0.000028  -0.000019  -0.000013   0.000066  -0.000001  -0.000335
    33  C    0.000084   0.001552  -0.001805   0.005502  -0.011314  -0.040005
    34  H   -0.000004  -0.000254  -0.000029  -0.000125  -0.000119   0.000762
    35  H   -0.000037  -0.000629   0.001145  -0.000258   0.000335  -0.003005
    36  O    0.000001  -0.000136  -0.000005   0.000165   0.000187  -0.000058
    37  H   -0.000004   0.000005   0.000001  -0.000122   0.000075   0.000019
    38  H   -0.000000   0.000067   0.000003  -0.000013  -0.000061   0.000010
              31         32         33         34         35         36
     1  Mn  -0.000094   0.000493   0.002391  -0.000410   0.000288  -0.038083
     2  O   -0.000009  -0.000004  -0.000008  -0.000003   0.000002  -0.000655
     3  O    0.000002   0.000028  -0.000111  -0.000017  -0.000012  -0.000733
     4  C    0.000001  -0.000016   0.000048   0.000005   0.000000   0.000586
     5  C   -0.000181   0.000069  -0.000164  -0.000021   0.000003   0.000029
     6  C   -0.000002  -0.000001   0.000000   0.000000   0.000000   0.000009
     7  C    0.000012   0.000008  -0.000003  -0.000000  -0.000000  -0.000000
     8  C    0.000000   0.000000  -0.000000  -0.000000  -0.000000  -0.000000
     9  H   -0.000000  -0.000000   0.000000   0.000000   0.000000   0.000006
    10  C   -0.000000  -0.000000   0.000000   0.000000   0.000000   0.000000
    11  H    0.000002   0.000002  -0.000002  -0.000000  -0.000000  -0.000000
    12  H   -0.000000   0.000000  -0.000000  -0.000000   0.000000  -0.000000
    13  H   -0.000000  -0.000000   0.000000   0.000000   0.000000   0.000000
    14  C    0.000000   0.000001  -0.000117  -0.000011   0.000004   0.000230
    15  C    0.000003  -0.000065   0.000711   0.000044   0.000060   0.000174
    16  C    0.000000   0.000001   0.000006  -0.000001  -0.000004   0.000004
    17  C   -0.000000  -0.000002  -0.000038   0.000004   0.000022   0.000001
    18  C   -0.000000  -0.000000  -0.000001   0.000000   0.000001   0.000000
    19  H    0.000000   0.000000   0.000000   0.000000  -0.000000   0.000006
    20  C    0.000000   0.000000   0.000002  -0.000000  -0.000002  -0.000000
    21  H   -0.000000  -0.000001  -0.000007   0.000001   0.000012   0.000000
    22  H    0.000000   0.000000  -0.000000  -0.000000  -0.000000  -0.000000
    23  H    0.000000   0.000000   0.000000  -0.000000  -0.000000  -0.000000
    24  C   -0.000587  -0.000627  -0.001330  -0.000209   0.000034  -0.000007
    25  H    0.001233   0.000028   0.000084  -0.000004  -0.000037   0.000001
    26  C    0.000016  -0.000019   0.001552  -0.000254  -0.000629  -0.000136
    27  H   -0.000042  -0.000013  -0.001805  -0.000029   0.001145  -0.000005
    28  N    0.000722   0.000066   0.005502  -0.000125  -0.000258   0.000165
    29  N   -0.000328  -0.000001  -0.011314  -0.000119   0.000335   0.000187
    30  C   -0.001122  -0.000335  -0.040005   0.000762  -0.003005  -0.000058
    31  H    0.002959   0.000115  -0.000666  -0.000173  -0.000684  -0.000001
    32  H    0.000115   0.002674  -0.001615   0.000081  -0.000622  -0.000003
    33  C   -0.000666  -0.001615   0.051855  -0.001730  -0.000511   0.000181
    34  H   -0.000173   0.000081  -0.001730   0.003409  -0.000488   0.000057
    35  H   -0.000684  -0.000622  -0.000511  -0.000488   0.006575   0.000001
    36  O   -0.000001  -0.000003   0.000181   0.000057   0.000001   0.067602
    37  H   -0.000001   0.000000  -0.000020   0.000004   0.000000  -0.001820
    38  H    0.000000   0.000000  -0.000021  -0.000010  -0.000001  -0.003052
              37         38
     1  Mn   0.000152   0.001988
     2  O    0.000269  -0.000032
     3  O   -0.000238  -0.000299
     4  C   -0.000171  -0.000038
     5  C    0.000068   0.000004
     6  C    0.000096  -0.000003
     7  C    0.000004   0.000000
     8  C   -0.000007   0.000000
     9  H    0.000010  -0.000003
    10  C   -0.000000  -0.000000
    11  H   -0.000000   0.000000
    12  H    0.000000   0.000000
    13  H   -0.000000  -0.000000
    14  C    0.000015  -0.000082
    15  C   -0.000001  -0.000061
    16  C    0.000002   0.000066
    17  C   -0.000000  -0.000004
    18  C    0.000000  -0.000001
    19  H    0.000000  -0.000006
    20  C   -0.000000  -0.000000
    21  H    0.000000  -0.000000
    22  H   -0.000000   0.000000
    23  H   -0.000000   0.000000
    24  C   -0.000026  -0.000003
    25  H   -0.000004  -0.000000
    26  C    0.000005   0.000067
    27  H    0.000001   0.000003
    28  N   -0.000122  -0.000013
    29  N    0.000075  -0.000061
    30  C    0.000019   0.000010
    31  H   -0.000001   0.000000
    32  H    0.000000   0.000000
    33  C   -0.000020  -0.000021
    34  H    0.000004  -0.000010
    35  H    0.000000  -0.000001
    36  O   -0.001820  -0.003052
    37  H    0.002593  -0.000415
    38  H   -0.000415   0.003395
 Mulliken charges and spin densities:
               1          2
     1  Mn   1.470905   4.782912
     2  O   -0.666432   0.033305
     3  O   -0.657859   0.037683
     4  C    0.275869   0.005184
     5  C   -0.206519   0.004816
     6  C   -0.159398   0.004121
     7  C   -0.080700  -0.000224
     8  C   -0.080523   0.001128
     9  H    0.106674   0.000201
    10  C   -0.143886   0.003146
    11  H    0.098421  -0.000099
    12  H    0.109014   0.000102
    13  H    0.101262  -0.000156
    14  C    0.261884   0.004116
    15  C   -0.207023   0.006012
    16  C   -0.157182   0.005537
    17  C   -0.080549  -0.001189
    18  C   -0.080346   0.000201
    19  H    0.108829   0.000192
    20  C   -0.144977   0.004354
    21  H    0.097946  -0.000046
    22  H    0.108365   0.000141
    23  H    0.100600  -0.000211
    24  C    0.197455   0.014321
    25  H    0.095004   0.004655
    26  C    0.188553   0.013451
    27  H    0.093705   0.005214
    28  N   -0.544389   0.016015
    29  N   -0.532790   0.018139
    30  C   -0.082648   0.003104
    31  H    0.113866   0.001175
    32  H    0.137400   0.000241
    33  C   -0.102016   0.002865
    34  H    0.140423   0.000764
    35  H    0.108472   0.002230
    36  O   -0.562209   0.024685
    37  H    0.288114   0.000487
    38  H    0.286684   0.001429
 Sum of Mulliken charges =  -0.00000   5.00000
 Mulliken charges and spin densities with hydrogens summed into heavy atoms:
               1          2
     1  Mn   1.470905   4.782912
     2  O   -0.666432   0.033305
     3  O   -0.657859   0.037683
     4  C    0.275869   0.005184
     5  C   -0.206519   0.004816
     6  C   -0.052724   0.004322
     7  C    0.017721  -0.000323
     8  C    0.028491   0.001230
    10  C   -0.042624   0.002991
    14  C    0.261884   0.004116
    15  C   -0.207023   0.006012
    16  C   -0.048353   0.005729
    17  C    0.017397  -0.001235
    18  C    0.028019   0.000342
    20  C   -0.044376   0.004143
    24  C    0.292458   0.018976
    26  C    0.282258   0.018665
    28  N   -0.544389   0.016015
    29  N   -0.532790   0.018139
    30  C    0.168618   0.004520
    33  C    0.146879   0.005859
    36  O    0.012589   0.026601
 Electronic spatial extent (au):  <R**2>=           8564.2297
 Charge=             -0.0000 electrons
 Dipole moment (field-independent basis, Debye):
    X=              0.0704    Y=              3.8509    Z=              0.7430  Tot=              3.9225
 Quadrupole moment (field-independent basis, Debye-Ang):
   XX=           -134.4840   YY=           -117.8970   ZZ=           -140.9552
   XY=             -0.1270   XZ=             -1.0643   YZ=             -3.9129
 Traceless Quadrupole moment (field-independent basis, Debye-Ang):
   XX=             -3.3719   YY=             13.2151   ZZ=             -9.8432
   XY=             -0.1270   XZ=             -1.0643   YZ=             -3.9129
 Octapole moment (field-independent basis, Debye-Ang**2):
  XXX=              3.5320  YYY=              4.8274  ZZZ=             18.9502  XYY=              0.3927
  XXY=              7.7517  XXZ=             -5.9927  XZZ=             -0.8238  YZZ=             -5.8895
  YYZ=             16.0803  XYZ=             -9.4665
 Hexadecapole moment (field-independent basis, Debye-Ang**3):
 XXXX=          -8962.7703 YYYY=          -1826.7480 ZZZZ=           -491.5264 XXXY=            -23.5561
 XXXZ=             -1.6646 YYYX=             -1.3867 YYYZ=            -34.5585 ZZZX=             -2.8945
 ZZZY=            -28.5947 XXYY=          -1725.0019 XXZZ=          -1804.0409 YYZZ=           -392.9037
 XXYZ=              8.5426 YYXZ=              5.0340 ZZXY=             11.1992
 N-N= 2.139310154654D+03 E-N=-9.245909736377D+03  KE= 2.102126062384D+03
 Leave Link  601 at Wed Sep 27 15:12:54 2017, MaxMem=  3221225472 cpu:               4.8 elap:               0.4
 (Enter /nopt/nrel/apps/gaussian/G16.sandy/g16/l9999.exe)
 Electronic transition elements 
                 1             2             3 
      1  -0.210550D+04 -0.210550D+04 -0.210547D+04
      2   0.152265D-01  0.912642D-02 -0.369742D-02
      3  -0.656050D-02 -0.393212D-02  0.173025D-02
      4  -0.152648D-01 -0.373856D-02 -0.212097D-02
      5  -0.177746D-02 -0.100127D-03  0.784145D-03
      6   0.740414D-03  0.894695D-03 -0.502144D-03
      7   0.112439D-02  0.112897D-02 -0.216170D-03
      8   0.134793D-01  0.459077D-02 -0.205364D-01
      9   0.205595D-01  0.150906D-02 -0.247127D-01
     10   0.959566D-02  0.104574D-01 -0.162491D-01
     11  -0.108139D-02  0.487743D-02  0.824747D-02
     12  -0.172815D-02  0.540146D-02  0.829508D-02
     13  -0.114298D-02  0.393391D-02 -0.515705D-02
     14   0.167629D-02 -0.252820D-02 -0.108314D-01
     15   0.111075D-02 -0.432325D-02 -0.680959D-03
     16   0.191165D-03  0.188574D-03  0.548532D-02
 1\1\GINC-N1010\SP\UwB97X TD-FC\6-311G(d,p)\C16H16Mn1N2O3(6)\CCHANG\27-
 Sep-2017\0\\#P UwB97X/6-311G** TD\\TDDFT single-point job to assess G1
 6 functionality.\\0,6\Mn,0,-2.120738,1.696775,0.374566\O,0,-0.620735,0
 .363802,0.028085\O,0,-3.361513,1.216805,1.896058\C,0,0.110938,0.083045
 ,-1.001034\C,0,0.007708,0.752238,-2.260671\C,0,1.090804,-0.94209,-0.90
 3176\C,0,0.862387,0.385032,-3.322305\C,0,1.901194,-1.274893,-1.960154\
 H,0,1.165552,-1.457389,0.048924\C,0,1.798639,-0.610354,-3.194799\H,0,0
 .763382,0.914461,-4.267881\H,0,2.634496,-2.067576,-1.838694\H,0,2.4432
 93,-0.879381,-4.023599\C,0,-4.438042,1.749181,2.375923\C,0,-5.020332,2
 .96265,1.889793\C,0,-5.106885,1.112762,3.457279\C,0,-6.200506,3.461474
 ,2.48108\C,0,-6.25099,1.631793,4.010777\H,0,-4.670273,0.189202,3.8232\
 C,0,-6.818943,2.823572,3.527511\H,0,-6.622706,4.383865,2.08686\H,0,-6.
 72705,1.108429,4.835672\H,0,-7.724284,3.224405,3.968677\C,0,-0.93331,1
 .814668,-2.523485\H,0,-0.865172,2.250033,-3.531091\C,0,-4.474369,3.717
 384,0.786325\H,0,-5.065308,4.594766,0.484695\N,0,-1.817528,2.27763,-1.
 716676\N,0,-3.39727,3.452922,0.143027\C,0,-2.703363,3.343343,-2.17072\
 H,0,-2.270884,3.90813,-3.006936\H,0,-3.644448,2.895069,-2.512612\C,0,-
 3.006228,4.271857,-0.992082\H,0,-2.093551,4.818793,-0.727196\H,0,-3.77
 9152,5.00285,-1.265445\O,0,-0.69136,2.207196,2.020732\H,0,-0.093806,1.
 471707,1.831925\H,0,-1.209753,1.940102,2.786978\\Version=ES64L-G16RevA
 .03\State=6-A\HF=-2105.596498\S2=8.752503\S2-1=0.\S2A=8.750002\RMSD=7.
 877e-09\PG=C01 [X(C16H16Mn1N2O3)]\\@


 CONFIDENCE: THAT QUIET ASSURED FEELING YOU HAVE
 JUST BEFORE YOU FALL FLAT ON YOUR FACE.
 Job cpu time:       0 days  0 hours  3 minutes  6.7 seconds.
 Elapsed time:       0 days  0 hours 12 minutes 46.5 seconds.
 File lengths (MBytes):  RWF=   1154 Int=      0 D2E=      0 Chk=     53 Scr=      1
 Normal termination of Gaussian 16 at Wed Sep 27 15:12:56 2017.
