LAMMPS (17 Nov 2016)
OMP_NUM_THREADS environment is not set. Defaulting to 1 thread. (../comm.cpp:90)
  using 1 OpenMP thread(s) per MPI task
#Optional input for intel package
#package intel 0 mode mixed balance -1
#package omp 0
#suffix intel
#processors * * * grid numa

variable 	thermo_print equal 200
variable	total_step equal ${thermo_print}*100
variable	total_step equal 200*100
units		real
boundary	p p p
neighbor        2.0 bin
neigh_modify    delay 10 every 1
atom_style	full
bond_style      harmonic
angle_style     harmonic
dihedral_style  harmonic
pair_style      lj/cut/coul/long 10.0
pair_modify     mix arithmetic
kspace_style    pppm 1e-4
read_data       ../data.begin
  orthogonal box = (0.0498083 0.0498083 0.0498083) to (208.651 208.651 208.651)
  2 by 2 by 4 MPI processor grid
  reading atoms ...
  744000 atoms
  reading velocities ...
  744000 velocities
  scanning bonds ...
  2 = max bonds/atom
  reading bonds ...
  648000 bonds
  2 = max # of 1-2 neighbors
  2 = max # of 1-3 neighbors
  4 = max # of 1-4 neighbors
  2 = max # of special neighbors
replicate	2 2 2
  orthogonal box = (0.0498083 0.0498083 0.0498083) to (417.253 417.253 417.253)
  2 by 2 by 4 MPI processor grid
  5952000 atoms
  5184000 bonds
  2 = max # of 1-2 neighbors
  2 = max # of 1-3 neighbors
  4 = max # of 1-4 neighbors
  2 = max # of special neighbors
fix             microcanonical all nve
timestep	1
thermo          ${thermo_print}
thermo          200
restart		${total_step} medium
restart		20000 medium
run             ${total_step}
run             20000
PPPM initialization ...
WARNING: Using 12-bit tables for long-range coulomb (../kspace.cpp:317)
  G vector (1/distance) = 0.263924
  grid = 216 216 216
  stencil order = 5
  estimated absolute RMS force accuracy = 0.0346605
  estimated relative force accuracy = 0.000104379
  using single precision FFTs
  3d grid and FFT values/proc = 806725 653184
Neighbor list info ...
  1 neighbor list requests
  update every 1 steps, delay 10 steps, check yes
  max neighbors/atom: 2000, page size: 100000
  master list distance cutoff = 12
  ghost atom cutoff = 12
  binsize = 6 -> bins = 70 70 70
Memory usage per processor = 305.975 Mbytes
Step Temp E_pair E_mol TotEng Press 
       0    299.89378    -97283939    2137399.5    -89825891     40.18268 
     200    299.54897    -97292933    2152593.8    -89825808   -39.293136 
     400    299.76798    -97295256    2151125.7    -89825714    -41.00916 
     600    299.85619    -97290937    2144879.9    -89826075   -6.3385898 
     800    300.06391    -97292172    2142512.2    -89825993    4.0021872 
    1000    300.02113    -97298666    2149779.7    -89825978    29.063221 
    1200    300.15611    -97304940    2153787.9    -89825849   -6.9120087 
    1400    300.20038    -97302293    2150029.7    -89826175    3.5910959 
    1600    300.25579    -97306869    2153832.6    -89825965   -24.984215 
    1800    300.05756    -97306118    2156498.9    -89826065   -3.4214871 
    2000    300.13117    -97307873    2157002.4    -89826009   -34.596456 
    2200    300.12234    -97306654    2155815.8    -89826135    19.380247 
    2400    300.17136    -97310491    2158838.3    -89826079    14.108366 
    2600    300.15549    -97309949      2158535    -89826122   -38.656624 
    2800    300.00863    -97310674    2161892.3    -89826095   -20.683035 
    3000    300.00018    -97310235    2161588.9    -89826109   -30.769831 
    3200    300.17427    -97311736    2159967.8    -89826143   -8.3369434 
    3400    300.05237    -97311400    2161811.1    -89826127   -35.513797 
    3600    300.20374    -97312565      2160243    -89826173   -10.408446 
    3800    300.09785    -97314381      2163874    -89826237   -28.493184 
    4000    300.06026    -97313631    2163774.5    -89826254   -17.378994 
    4200    300.08697    -97312190    2161920.6    -89826193   -23.938876 
    4400    300.19458    -97319018    2166748.9    -89826283   -35.105503 
    4600    300.11674    -97319580    2168679.3    -89826296    -36.91289 
    4800    300.13013    -97320688    2169584.7    -89826261    -46.21258 
    5000    300.20951    -97320012    2167485.9    -89826275   -25.921099 
    5200    300.17141    -97319565    2167680.1    -89826310   -20.976693 
    5400    300.09622    -97320736    2170203.4    -89826292   -24.105077 
    5600    300.18463    -97321298    2169143.5    -89826345   -20.388494 
    5800     300.2255    -97324516    2171633.3    -89826348    -25.89911 
    6000    300.22634    -97323985    2171025.6    -89826410   -20.567245 
    6200    300.19908    -97324501    2172038.1    -89826397   -38.232281 
    6400    300.10339    -97322375    2171604.3    -89826403   -20.358059 
    6600    300.20889    -97329024    2176407.7    -89826377   -54.592303 
    6800    300.26712    -97327655    2173927.9    -89826455   -29.616937 
    7000    300.34927    -97332040    2176847.3    -89826463   -54.489637 
    7200    300.20055    -97330128    2177538.4    -89826498   -32.471876 
    7400    300.18827    -97329588    2177284.5    -89826430   -21.490001 
    7600    300.25876    -97334111    2180508.3    -89826478   -39.349724 
    7800    300.06766    -97331317    2181110.8    -89826472   -34.964653 
    8000    300.26365    -97335743    2182008.2    -89826524   -23.378618 
    8200    300.17508    -97334582    2182461.9    -89826480   -25.723984 
    8400    300.32305    -97337805      2183019    -89826521   -43.596364 
    8600    300.26427    -97339099    2185316.2    -89826561    -64.26386 
    8800    300.20873    -97334419    2181584.1    -89826598   -7.0815234 
    9000    300.19229    -97337512    2184988.9    -89826578   -64.621982 
    9200    300.33266    -97338718    2183648.4    -89826634   -27.195578 
    9400    300.12579    -97338491    2187076.2    -89826650    -45.14682 
    9600     300.3039    -97337310      2182746    -89826639   -31.868978 
    9800     300.2986    -97340722    2186168.3    -89826722   -25.061162 
   10000    300.26409    -97340918    2186990.1    -89826709   -33.545944 
   10200    300.30919    -97344504    2189752.5    -89826732   -31.098287 
   10400    300.32282    -97345338    2190304.1    -89826773   -59.890954 
   10600    300.38265    -97348121      2192069    -89826729   -52.713157 
   10800    300.36709    -97346844    2191031.9    -89826766   -36.743682 
   11000    300.35138    -97346637    2191048.9    -89826820   -26.952217 
   11200     300.4073    -97351163      2194549    -89826854   -64.613814 
   11400    300.34182    -97347185    2191757.8    -89826829   -76.281863 
   11600     300.4181    -97349770    2193000.5    -89826818    -28.73168 
   11800    300.38704    -97350949    2194705.3    -89826843    -75.65004 
   12000     300.5484    -97352300    2193102.4    -89826935   -51.112277 
   12200     300.4492    -97355094    2197752.2    -89826839   -60.912575 
   12400     300.3798    -97355629    2199390.4    -89826967   -77.777336 
   12600    300.52075    -97356480    2197814.5    -89826893   -63.022641 
   12800     300.4436    -97355443    2198134.6    -89826905    -53.01791 
   13000    300.43312    -97356177    2198965.1    -89826994    -70.56724 
   13200    300.21285    -97355136    2201874.4    -89826952   -54.741624 
   13400    300.51564    -97358546      2199892    -89826972   -55.481482 
   13600     300.4653    -97359148    2201371.9    -89826988   -40.953159 
   13800    300.62017    -97361549    2200978.1    -89827034   -55.187024 
   14000    300.40646    -97357713    2200918.8    -89827049   -43.719712 
   14200    300.40936    -97360447    2203637.8    -89827013   -39.610493 
   14400    300.56776    -97364344    2204657.5    -89827080    -47.33562 
   14600    300.47321    -97365404    2207420.9    -89827054   -59.869412 
   14800    300.53732    -97364510    2205351.8    -89827092   -39.284517 
   15000    300.35654    -97362054    2206107.5    -89827087   -51.712583 
   15200    300.45975    -97365177    2207354.6    -89827132   -41.554203 
   15400    300.53713    -97366034    2206814.9    -89827156   -55.811929 
   15600    300.50063    -97367100    2208517.1    -89827167   -50.501266 
   15800    300.46988    -97366731    2208654.1    -89827207   -52.428894 
   16000    300.52154    -97368166    2209228.8    -89827150   -47.923749 
   16200    300.45074    -97369269    2211528.8    -89827210   -65.996334 
   16400    300.49087    -97369018    2210565.8    -89827209   -35.236874 
   16600    300.62476    -97371909      2211008    -89827283   -70.606631 
   16800     300.5187    -97370602    2211624.7    -89827241   -33.261748 
   17000    300.62165    -97374285    2213409.6    -89827312   -74.792665 
   17200    300.51698    -97374580    2215601.9    -89827273   -65.517705 
   17400    300.53905    -97374926    2215503.8    -89827324   -50.884778 
   17600    300.83895    -97382542      2217804    -89827320   -92.383254 
   17800    300.63074    -97378485    2217416.6    -89827345   -65.521918 
   18000    300.54649    -97376129      2216602    -89827298   -64.510332 
   18200    300.63269    -97377454    2216271.4    -89827424   -78.403082 
   18400    300.67007    -97378820    2216967.5    -89827431   -60.951773 
   18600    300.61373    -97383735    2222907.1    -89827406   -41.760262 
   18800      300.711    -97382482    2219902.7    -89827431   -59.630802 
   19000    300.62276    -97382903    2221881.9    -89827439   -63.702776 
   19200    300.55113    -97381828    2222111.1    -89827406   -86.672547 
   19400    300.69803    -97384960    2222597.6    -89827445   -56.903596 
   19600    300.47178    -97381783    2223478.6    -89827401   -69.182534 
   19800    300.60788    -97382223    2221347.5    -89827557   -67.123201 
   20000     300.5836    -97385616      2225265    -89827463   -79.486991 
Loop time of 62207 on 16 procs for 20000 steps with 5952000 atoms

Performance: 0.028 ns/day, 863.986 hours/ns, 0.322 timesteps/s
99.4% CPU use with 16 MPI tasks x 1 OpenMP threads

MPI task timing breakdown:
Section |  min time  |  avg time  |  max time  |%varavg| %total
---------------------------------------------------------------
Pair    | 45571      | 46255      | 47070      | 184.2 | 74.36
Bond    | 192.43     | 196.66     | 201.26     |  19.1 |  0.32
Kspace  | 8428       | 9245.1     | 9924.5     | 416.2 | 14.86
Neigh   | 5761.2     | 5763.9     | 5766.1     |   1.7 |  9.27
Comm    | 276.09     | 359.46     | 381        | 119.3 |  0.58
Output  | 1.3815     | 1.397      | 1.4278     |   1.1 |  0.00
Modify  | 280.95     | 305.05     | 312.92     |  46.0 |  0.49
Other   |            | 80.6       |            |       |  0.13

Nlocal:    372000 ave 372475 max 371578 min
Histogram: 3 3 1 0 1 2 1 1 1 3
Nghost:    196798 ave 197112 max 196338 min
Histogram: 1 0 1 2 1 1 5 3 1 1
Neighs:    1.10203e+08 ave 1.10619e+08 max 1.09757e+08 min
Histogram: 1 3 2 1 2 0 1 0 4 2

Total # of neighbors = 1763241685
Ave neighs/atom = 296.244
Ave special neighs/atom = 1.74194
Neighbor list builds = 1600
Dangerous builds = 3
write_data	data.medium
PPPM initialization ...
WARNING: Using 12-bit tables for long-range coulomb (../kspace.cpp:317)
  G vector (1/distance) = 0.263924
  grid = 216 216 216
  stencil order = 5
  estimated absolute RMS force accuracy = 0.0346605
  estimated relative force accuracy = 0.000104379
  using single precision FFTs
  3d grid and FFT values/proc = 806725 653184


Total wall time: 17:18:45
