LAMMPS (17 Nov 2016)
OMP_NUM_THREADS environment is not set. Defaulting to 1 thread. (../comm.cpp:90)
  using 1 OpenMP thread(s) per MPI task
#Optional input for intel package
#package intel 0 mode mixed balance -1
#package omp 0
#suffix intel
#processors * * * grid numa

variable 	thermo_print equal 200
variable	total_step equal ${thermo_print}*100
variable	total_step equal 200*100
units		real
boundary	p p p
neighbor        2.0 bin
neigh_modify    delay 10 every 1
atom_style	full
bond_style      harmonic
angle_style     harmonic
dihedral_style  harmonic
pair_style      lj/cut/coul/long 10.0
pair_modify     mix arithmetic
kspace_style    pppm 1e-4
read_data       ../data.begin
  orthogonal box = (0.0498083 0.0498083 0.0498083) to (208.651 208.651 208.651)
  4 by 4 by 4 MPI processor grid
  reading atoms ...
  744000 atoms
  reading velocities ...
  744000 velocities
  scanning bonds ...
  2 = max bonds/atom
  reading bonds ...
  648000 bonds
  2 = max # of 1-2 neighbors
  2 = max # of 1-3 neighbors
  4 = max # of 1-4 neighbors
  2 = max # of special neighbors
replicate	2 2 2
  orthogonal box = (0.0498083 0.0498083 0.0498083) to (417.253 417.253 417.253)
  4 by 4 by 4 MPI processor grid
  5952000 atoms
  5184000 bonds
  2 = max # of 1-2 neighbors
  2 = max # of 1-3 neighbors
  4 = max # of 1-4 neighbors
  2 = max # of special neighbors
fix             microcanonical all nve
timestep	1
thermo          ${thermo_print}
thermo          200
restart		${total_step} medium
restart		20000 medium
run             ${total_step}
run             20000
PPPM initialization ...
WARNING: Using 12-bit tables for long-range coulomb (../kspace.cpp:317)
  G vector (1/distance) = 0.263924
  grid = 216 216 216
  stencil order = 5
  estimated absolute RMS force accuracy = 0.0346605
  estimated relative force accuracy = 0.000104379
  using single precision FFTs
  3d grid and FFT values/proc = 226981 186624
Neighbor list info ...
  1 neighbor list requests
  update every 1 steps, delay 10 steps, check yes
  max neighbors/atom: 2000, page size: 100000
  master list distance cutoff = 12
  ghost atom cutoff = 12
  binsize = 6 -> bins = 70 70 70
Memory usage per processor = 91.1297 Mbytes
Step Temp E_pair E_mol TotEng Press 
       0    299.89378    -97283939    2137399.5    -89825891    40.182681 
     200    299.54897    -97292933    2152593.8    -89825808    -39.29307 
     400    299.76799    -97295257    2151125.7    -89825714   -41.009935 
     600    299.85684    -97290949    2144880.7    -89826074   -6.3666346 
     800    300.06759    -97292291      2142564    -89825994    4.1565288 
    1000     300.0455    -97299111    2149799.7    -89825970    26.898119 
    1200    300.07034    -97303940      2154319    -89825840    1.5748466 
    1400    300.17477    -97300401    2148584.4    -89826182   -11.763912 
    1600    300.03112    -97303902    2154901.6    -89825915   -16.056738 
    1800    300.10302    -97304624    2154225.3    -89826037    3.5822086 
    2000    300.03431    -97304529    2155302.1    -89826085    -35.09329 
    2200    300.05335    -97305426    2155913.9    -89826032     1.337437 
    2400    300.14812    -97308758    2157438.2    -89826159   -27.022131 
    2600    300.11942    -97307369    2156648.8    -89826068   -27.317483 
    2800    299.99269    -97306533    2157977.7    -89826152   -30.946867 
    3000    300.19732    -97313391    2161239.4    -89826118   -10.427424 
    3200    300.11823    -97311302    2160452.7    -89826218   -21.460249 
    3400    300.14239    -97314410      2163133    -89826218   -29.593619 
    3600    300.01332    -97312387      2163414    -89826203   -8.5970799 
    3800     300.0709    -97313864    2163808.1    -89826265   -21.323125 
    4000    300.08014    -97315808    2165633.5    -89826219   -32.660997 
    4200    300.25858    -97319603    2166197.1    -89826284   -19.007191 
    4400    300.26542    -97317009    2163513.9    -89826252   -24.049205 
    4600     300.1164    -97316540    2165632.7    -89826308   -22.527308 
    4800    300.13541    -97317841    2166670.7    -89826234   -10.084847 
    5000    300.12266    -97317058    2166046.5    -89826301   -23.500086 
    5200    300.21424    -97322951    2170251.6    -89826365   -25.169022 
    5400    300.13759    -97322719    2171456.3    -89826288   -14.633072 
    5600    300.13486    -97317512    2166260.2    -89826326   -30.421885 
    5800    300.17834    -97322571    2170504.6    -89826369   -34.511125 
    6000    300.03136    -97323546    2174080.4    -89826376   -31.840171 
    6200    300.18983    -97324380    2172043.2    -89826435   -19.316515 
    6400    300.21175    -97329482    2176768.6    -89826423   -46.416875 
    6600    300.22325    -97328285    2175379.9    -89826410   -19.509836 
    6800    300.14245    -97326868    2175336.5    -89826470    -59.29312 
    7000    300.22271    -97329391    2176522.9    -89826384   -26.210374 
    7200    300.23236    -97330545    2177384.1    -89826504   -10.480329 
    7400    300.22121    -97332300    2179377.6    -89826464   -50.414033 
    7600    300.29563    -97332271    2177943.1    -89826550    -25.43396 
    7800    300.28079    -97332628    2178509.9    -89826603   -26.530347 
    8000    300.25403    -97332971    2179405.3    -89826525   -30.456453 
    8200    300.37737    -97339164    2183342.5    -89826593   -67.224239 
    8400    300.24963    -97335467    2181950.9    -89826553   -41.570937 
    8600    300.28559    -97335323    2181135.1    -89826588   -42.697891 
    8800    300.31036    -97341062    2186444.7    -89826577   -45.120546 
    9000    300.29607    -97337572    2183131.3    -89826654   -14.583773 
    9200    300.33029    -97339655    2184603.1    -89826659   -62.669409 
    9400    300.22364    -97339970    2186790.3    -89826678   -59.370272 
    9600    300.25732    -97341278    2187474.6    -89826705   -68.095761 
    9800    300.19759    -97342878    2190152.3    -89826687   -58.167202 
   10000    300.14528    -97340015    2188225.6    -89826678   -54.877045 
   10200    300.30398    -97344995    2190355.5    -89826713    -55.73506 
   10400    300.14544    -97339453    2187626.3    -89826713   -59.124951 
   10600     300.2625    -97340975    2187016.7    -89826768   -43.303997 
   10800     300.3244    -97345809    2190757.9    -89826762   -56.988152 
   11000    300.35337    -97347337    2191776.4    -89826758   -48.187879 
   11200     300.4731    -97352299    2194544.6    -89826827   -55.456556 
   11400    300.35104    -97347184    2191601.6    -89826821   -37.110646 
   11600    300.50113    -97351061    2192769.7    -89826867   -36.701856 
   11800    300.39148    -97352179    2195843.7    -89826856   -86.198138 
   12000    300.40882    -97351336    2194640.9    -89826908   -49.933498 
   12200    300.47695    -97352314    2194416.2    -89826903   -35.654763 
   12400    300.35116    -97352374    2196765.1    -89826845   -58.382918 
   12600    300.48496    -97354097    2196060.1    -89826899    -61.62381 
   12800    300.42068    -97354055      2197144    -89826914   -53.032029 
   13000    300.43102    -97354871    2197801.3    -89826889   -43.404539 
   13200    300.46177    -97357414    2199784.2    -89826903   -51.261147 
   13400    300.37384    -97357016    2200907.1    -89826942   -39.246953 
   13600    300.52283    -97361154    2202376.9    -89826967   -66.489153 
   13800    300.45312    -97359797    2202216.9    -89827008   -42.274475 
   14000    300.57303    -97361962    2202264.7    -89826997   -44.762478 
   14200    300.43987    -97359783      2202372    -89827073    -70.84294 
   14400    300.38889    -97363151    2206670.7    -89827047   -65.323344 
   14600    300.61348    -97366968    2206453.6    -89827096   -54.974915 
   14800    300.53875    -97363972    2204819.2    -89827061   -51.709315 
   15000    300.41399    -97363503    2206507.5    -89827117   -48.638521 
   15200    300.49693    -97367455    2209005.4    -89827100   -59.355247 
   15400    300.53513    -97369565    2210400.1    -89827137   -65.746657 
   15600    300.30834    -97363344    2208166.2    -89827174   -67.773099 
   15800    300.50997    -97367099    2208309.7    -89827208   -54.726796 
   16000     300.5152    -97370372    2211528.9    -89827169   -57.398503 
   16200    300.45469    -97370705    2212936.1    -89827168   -78.551348 
   16400    300.44185    -97368986    2211410.3    -89827203   -89.158898 
   16600    300.53676    -97371726    2212448.5    -89827221   -73.186312 
   16800    300.47962    -97371754    2213443.9    -89827267   -53.271521 
   17000    300.55693    -97373703    2214021.6    -89827267   -63.409079 
   17200    300.52882    -97371059    2211894.5    -89827248   -48.461217 
   17400    300.49972    -97375201    2216541.5    -89827260   -60.414493 
   17600    300.67233    -97375733    2213917.5    -89827353   -53.174409 
   17800    300.66515    -97377554    2215977.8    -89827241   -80.823756 
   18000    300.55065    -97376012    2216329.4    -89827379   -41.400836 
   18200    300.64079    -97378881    2217606.5    -89827372    -63.06125 
   18400    300.52517    -97377100    2217927.1    -89827321   -66.549365 
   18600    300.49389    -97379164    2220516.1    -89827352   -67.297244 
   18800    300.64511    -97381508    2220106.6    -89827423   -74.863655 
   19000    300.64765    -97380928    2219475.8    -89827428   -73.198796 
   19200    300.75695    -97385569    2222157.5    -89827448   -79.132052 
   19400    300.66457    -97381986    2220235.7    -89827426   -60.656776 
   19600    300.70894    -97385050    2222516.1    -89827423   -76.871073 
   19800    300.70456    -97385478    2222931.6    -89827513   -84.360966 
   20000    300.72531    -97386694    2223766.7    -89827526   -59.421378 
Loop time of 16799.6 on 64 procs for 20000 steps with 5952000 atoms

Performance: 0.103 ns/day, 233.328 hours/ns, 1.191 timesteps/s
99.6% CPU use with 64 MPI tasks x 1 OpenMP threads

MPI task timing breakdown:
Section |  min time  |  avg time  |  max time  |%varavg| %total
---------------------------------------------------------------
Pair    | 11534      | 11980      | 12310      | 161.8 | 71.31
Bond    | 45.835     | 49.804     | 53.245     |  23.9 |  0.30
Kspace  | 2617.6     | 2912.6     | 3353.1     | 324.7 | 17.34
Neigh   | 1505.6     | 1508.4     | 1513.5     |   7.2 |  8.98
Comm    | 183.84     | 224.8      | 253.35     |  94.2 |  1.34
Output  | 1.5226     | 1.5814     | 1.7045     |   3.5 |  0.01
Modify  | 48.543     | 88.901     | 106.17     | 188.1 |  0.53
Other   |            | 34.06      |            |       |  0.20

Nlocal:    93000 ave 93248 max 92670 min
Histogram: 1 2 5 4 9 12 14 8 6 3
Nghost:    80026.2 ave 80343 max 79691 min
Histogram: 2 2 7 7 15 9 7 10 1 4
Neighs:    2.75505e+07 ave 2.77077e+07 max 2.73946e+07 min
Histogram: 5 7 7 5 5 10 11 3 3 8

Total # of neighbors = 1763233502
Ave neighs/atom = 296.242
Ave special neighs/atom = 1.74194
Neighbor list builds = 1601
Dangerous builds = 2
write_data	data.medium
PPPM initialization ...
WARNING: Using 12-bit tables for long-range coulomb (../kspace.cpp:317)
  G vector (1/distance) = 0.263924
  grid = 216 216 216
  stencil order = 5
  estimated absolute RMS force accuracy = 0.0346605
  estimated relative force accuracy = 0.000104379
  using single precision FFTs
  3d grid and FFT values/proc = 226981 186624


Total wall time: 4:40:39
