LAMMPS (17 Nov 2016)
OMP_NUM_THREADS environment is not set. Defaulting to 1 thread. (../comm.cpp:90)
  using 1 OpenMP thread(s) per MPI task
#Optional input for intel package
#package intel 0 mode mixed balance -1
#package omp 0
#suffix intel
#processors * * * grid numa

variable 	thermo_print equal 20
variable	total_step equal ${thermo_print}*10
variable	total_step equal 20*10
units		real
boundary	p p p
neighbor        2.0 bin
neigh_modify    delay 10 every 1
atom_style	full
bond_style      harmonic
angle_style     harmonic
dihedral_style  harmonic
pair_style      lj/cut/coul/long 10.0
pair_modify     mix arithmetic
kspace_style    pppm 1e-4
read_data       ../data.begin
  orthogonal box = (0.0498083 0.0498083 0.0498083) to (208.651 208.651 208.651)
  4 by 4 by 6 MPI processor grid
  reading atoms ...
  744000 atoms
  reading velocities ...
  744000 velocities
  scanning bonds ...
  2 = max bonds/atom
  reading bonds ...
  648000 bonds
  2 = max # of 1-2 neighbors
  2 = max # of 1-3 neighbors
  4 = max # of 1-4 neighbors
  2 = max # of special neighbors
replicate	4 4 4
  orthogonal box = (0.0498083 0.0498083 0.0498083) to (834.456 834.456 834.456)
  4 by 4 by 6 MPI processor grid
  47616000 atoms
  41472000 bonds
  2 = max # of 1-2 neighbors
  2 = max # of 1-3 neighbors
  4 = max # of 1-4 neighbors
  2 = max # of special neighbors
fix             microcanonical all nve
timestep	1
thermo          ${thermo_print}
thermo          20
restart		${total_step} large
restart		200 large
run             ${total_step}
run             200
PPPM initialization ...
WARNING: Using 12-bit tables for long-range coulomb (../kspace.cpp:317)
  G vector (1/distance) = 0.25839
  grid = 405 405 405
  stencil order = 5
  estimated absolute RMS force accuracy = 0.0462798
  estimated relative force accuracy = 0.00013937
  using single precision FFTs
  3d grid and FFT values/proc = 835777 820125
Neighbor list info ...
  1 neighbor list requests
  update every 1 steps, delay 10 steps, check yes
  max neighbors/atom: 2000, page size: 100000
  master list distance cutoff = 12
  ghost atom cutoff = 12
  binsize = 6 -> bins = 140 140 140
Memory usage per processor = 378.477 Mbytes
Step Temp E_pair E_mol TotEng Press 
       0    299.89374 -7.7826963e+08     17099196 -7.1860524e+08     41.69781 
      20    299.73603 -7.782981e+08     17151228 -7.1860407e+08   -20.123316 
      40    299.85878 -7.7840853e+08     17244891 -7.1860341e+08     -78.8346 
      60    299.89804 -7.7829577e+08     17124705 -7.1860526e+08    2.3856601 
      80    299.85695 -7.7830827e+08     17143673 -7.1860463e+08   -8.9840651 
     100    299.87722 -7.7843374e+08     17266761 -7.1860413e+08   -49.401304 
     120    299.66753 -7.7826242e+08     17125752 -7.1860358e+08    38.734707 
     140    299.89715 -7.7833732e+08     17166798 -7.1860485e+08    1.5126746 
     160    299.98542 -7.7845068e+08     17268145 -7.1860433e+08   -50.683432 
     180    300.02578 -7.783256e+08     17136698 -7.1860497e+08    -12.41245 
     200    299.55555 -7.7834197e+08     17220436 -7.1860434e+08    -38.66213 
Loop time of 932.054 on 96 procs for 200 steps with 47616000 atoms

Performance: 0.019 ns/day, 1294.519 hours/ns, 0.215 timesteps/s
99.7% CPU use with 96 MPI tasks x 1 OpenMP threads

MPI task timing breakdown:
Section |  min time  |  avg time  |  max time  |%varavg| %total
---------------------------------------------------------------
Pair    | 599.58     | 613.45     | 631.1      |  28.0 | 65.82
Bond    | 2.5495     | 2.7848     | 3.4335     |  12.1 |  0.30
Kspace  | 195.17     | 211.26     | 224.98     |  46.7 | 22.67
Neigh   | 75.826     | 75.892     | 75.947     |   0.3 |  8.14
Comm    | 7.797      | 9.5214     | 10.493     |  15.7 |  1.02
Output  | 12.096     | 12.11      | 12.158     |   0.4 |  1.30
Modify  | 4.6556     | 5.3639     | 5.6307     |   9.1 |  0.58
Other   |            | 1.672      |            |       |  0.18

Nlocal:    496000 ave 496311 max 495596 min
Histogram: 32 0 0 0 0 0 25 7 0 32
Nghost:    226831 ave 227073 max 226623 min
Histogram: 32 0 0 32 0 0 0 0 0 32
Neighs:    1.46933e+08 ave 1.47281e+08 max 1.46555e+08 min
Histogram: 6 6 13 11 12 8 9 13 10 8

Total # of neighbors = 1.41056e+10
Ave neighs/atom = 296.236
Ave special neighs/atom = 1.74194
Neighbor list builds = 16
Dangerous builds = 0
write_data	data.large
PPPM initialization ...
WARNING: Using 12-bit tables for long-range coulomb (../kspace.cpp:317)
  G vector (1/distance) = 0.25839
  grid = 405 405 405
  stencil order = 5
  estimated absolute RMS force accuracy = 0.0462798
  estimated relative force accuracy = 0.00013937
  using single precision FFTs
  3d grid and FFT values/proc = 835777 820125


Total wall time: 0:20:34
