LAMMPS (17 Nov 2016)
OMP_NUM_THREADS environment is not set. Defaulting to 1 thread. (../comm.cpp:90)
  using 1 OpenMP thread(s) per MPI task
#Optional input for intel package
#package intel 0 mode mixed balance -1
#package omp 0
#suffix intel
#processors * * * grid numa

variable 	thermo_print equal 2000
variable	total_step equal ${thermo_print}*10
variable	total_step equal 2000*10
units		real
boundary	p p p
neighbor        2.0 bin
neigh_modify    delay 10 every 1
atom_style	full
bond_style      harmonic
angle_style     harmonic
dihedral_style  harmonic
pair_style      lj/cut/coul/long 10.0
pair_modify     mix arithmetic
kspace_style    pppm 1e-4
read_data       ../data.begin
  orthogonal box = (0.0498083 0.0498083 0.0498083) to (208.651 208.651 208.651)
  4 by 4 by 6 MPI processor grid
  reading atoms ...
  744000 atoms
  reading velocities ...
  744000 velocities
  scanning bonds ...
  2 = max bonds/atom
  reading bonds ...
  648000 bonds
  2 = max # of 1-2 neighbors
  2 = max # of 1-3 neighbors
  4 = max # of 1-4 neighbors
  2 = max # of special neighbors
fix		microcanonical all nve
timestep	1
thermo          ${thermo_print}
thermo          2000
restart		${total_step} small
restart		20000 small
run             ${total_step}
run             20000
PPPM initialization ...
WARNING: Using 12-bit tables for long-range coulomb (../kspace.cpp:317)
  G vector (1/distance) = 0.263924
  grid = 108 108 108
  stencil order = 5
  estimated absolute RMS force accuracy = 0.0346605
  estimated relative force accuracy = 0.000104379
  using single precision FFTs
  3d grid and FFT values/proc = 28900 23328
Neighbor list info ...
  1 neighbor list requests
  update every 1 steps, delay 10 steps, check yes
  max neighbors/atom: 2000, page size: 100000
  master list distance cutoff = 12
  ghost atom cutoff = 12
  binsize = 6 -> bins = 35 35 35
Memory usage per processor = 17.8534 Mbytes
Step Temp E_pair E_mol TotEng Press 
       0    299.89414    -12160492    267174.94    -11228236    40.182681 
    2000    299.80021    -12162553     269414.8    -11228265     1.141666 
    4000    299.95854    -12164416    270934.38    -11228257   -11.281572 
    6000    300.03361    -12165192    271491.29    -11228311   -7.9520348 
    8000    300.59648    -12167069    272093.75    -11228336    10.281592 
   10000    300.13695    -12167923     273962.8    -11228340    33.826907 
   12000    300.61714    -12169602    274541.34    -11228376   -43.509895 
   14000    300.60774    -12170707    275666.09    -11228378   -90.334262 
   16000    299.81608    -12169554    276240.21    -11228406   -93.192077 
   18000    300.54425    -12173453    278517.62    -11228413   -136.78343 
   20000    300.88482    -12172995    277243.33    -11228473    -41.92925 
Loop time of 1465.07 on 96 procs for 20000 steps with 744000 atoms

Performance: 1.179 ns/day, 20.348 hours/ns, 13.651 timesteps/s
99.7% CPU use with 96 MPI tasks x 1 OpenMP threads

MPI task timing breakdown:
Section |  min time  |  avg time  |  max time  |%varavg| %total
---------------------------------------------------------------
Pair    | 941.29     | 972.03     | 1015.1     |  50.6 | 66.35
Bond    | 2.7108     | 2.863      | 3.0222     |   4.1 |  0.20
Kspace  | 284.5      | 327.86     | 358.5      |  86.6 | 22.38
Neigh   | 120.28     | 120.35     | 120.43     |   0.3 |  8.21
Comm    | 31.576     | 34.316     | 36.161     |  16.1 |  2.34
Output  | 0.20056    | 0.20168    | 0.20307    |   0.1 |  0.01
Modify  | 2.3027     | 2.7689     | 3.2048     |  11.4 |  0.19
Other   |            | 4.677      |            |       |  0.32

Nlocal:    7750 ave 7879 max 7648 min
Histogram: 5 3 16 19 18 13 12 6 3 1
Nghost:    20183.5 ave 20371 max 20006 min
Histogram: 1 6 13 16 16 13 14 12 2 3
Neighs:    2.29591e+06 ave 2.40984e+06 max 2.2315e+06 min
Histogram: 7 15 18 17 16 8 13 1 0 1

Total # of neighbors = 220407126
Ave neighs/atom = 296.246
Ave special neighs/atom = 1.74194
Neighbor list builds = 1477
Dangerous builds = 0
write_data	data.small
PPPM initialization ...
WARNING: Using 12-bit tables for long-range coulomb (../kspace.cpp:317)
  G vector (1/distance) = 0.263924
  grid = 108 108 108
  stencil order = 5
  estimated absolute RMS force accuracy = 0.0346605
  estimated relative force accuracy = 0.000104379
  using single precision FFTs
  3d grid and FFT values/proc = 28900 23328


Total wall time: 0:24:32
