 vasp.5.4.1 24Jun15 (build Feb 09 2016 12:33:36) complex                        
  
 executed on            Peregrine date 2017.02.15  12:17:08
 running on   64 total cores
 distrk:  each k-point on   64 cores,    1 groups
 distr:  one band on NCORES_PER_BAND=   1 cores,   64 groups


--------------------------------------------------------------------------------------------------------


 INCAR:
 POTCAR:   PAW_PBE Cu 05Jan2001                   
 POTCAR:   PAW_PBE In_d 06Sep2000                 
 POTCAR:   PAW_PBE Se 06Sep2000                   

 ----------------------------------------------------------------------------- 
|                                                                             |
|           W    W    AA    RRRRR   N    N  II  N    N   GGGG   !!!           |
|           W    W   A  A   R    R  NN   N  II  NN   N  G    G  !!!           |
|           W    W  A    A  R    R  N N  N  II  N N  N  G       !!!           |
|           W WW W  AAAAAA  RRRRR   N  N N  II  N  N N  G  GGG   !            |
|           WW  WW  A    A  R   R   N   NN  II  N   NN  G    G                |
|           W    W  A    A  R    R  N    N  II  N    N   GGGG   !!!           |
|                                                                             |
|      For optimal performance we recommend to set                            |
|        NCORE= 4 - approx SQRT( number of cores)                             |
|      NCORE specifies how many cores store one orbital (NPAR=cpu/NCORE).     |
|      This setting can  greatly improve the performance of VASP for DFT.     |
|      The default, NPAR=number of cores might be grossly inefficient         |
|      on modern multi-core architectures or massively parallel machines.     |
|      Do your own testing !!!!                                               |
|      Unfortunately you need to use the default for GW and RPA calculations. |
|      (for HF NCORE is supported but not extensively tested yet)             |
|                                                                             |
 ----------------------------------------------------------------------------- 

 POTCAR:   PAW_PBE Cu 05Jan2001                   
   VRHFIN =Cu: d10 p1                                                           
   LEXCH  = PE                                                                  
   EATOM  =  1390.9800 eV,  102.2341 Ry                                         
                                                                                
   TITEL  = PAW_PBE Cu 05Jan2001                                                
   LULTRA =        F    use ultrasoft PP ?                                      
   IUNSCR =        1    unscreen: 0-lin 1-nonlin 2-no                           
   RPACOR =    2.000    partial core radius                                     
   POMASS =   63.546; ZVAL   =   11.000    mass and valenz                      
   RCORE  =    2.300    outmost cutoff radius                                   
   RWIGS  =    2.480; RWIGS  =    1.312    wigner-seitz radius (au A)           
   ENMAX  =  273.214; ENMIN  =  204.910 eV                                      
   RCLOC  =    1.712    cutoff for local pot                                    
   LCOR   =        T    correct aug charges                                     
   LPAW   =        T    paw PP                                                  
   EAUG   =  516.456                                                            
   DEXC   =    -.008                                                            
   RMAX   =    2.789    core radius for proj-oper                               
   RAUG   =    1.300    factor for augmentation sphere                          
   RDEP   =    2.302    radius for radial grids                                 
   QCUT   =   -4.481; QGAM   =    8.962    optimization parameters              
                                                                                
   Description                                                                  
     l     E      TYP  RCUT    TYP  RCUT                                        
     2   .000     23  2.300                                                     
     2   .000     23  2.300                                                     
     0   .000     23  2.300                                                     
     0   .000     23  2.300                                                     
     1  -.200     23  2.300                                                     
     1   .000     23  2.300                                                     
     3   .000      7   .000                                                     
  local pseudopotential read in
  partial core-charges read in
  atomic valenz-charges read in
  non local Contribution for L=           2  read in
    real space projection operators read in
  non local Contribution for L=           2  read in
    real space projection operators read in
  non local Contribution for L=           0  read in
    real space projection operators read in
  non local Contribution for L=           0  read in
    real space projection operators read in
  non local Contribution for L=           1  read in
    real space projection operators read in
  non local Contribution for L=           1  read in
    real space projection operators read in
    PAW grid and wavefunctions read in
 
   number of l-projection  operators is LMAX  =           6
   number of lm-projection operators is LMMAX =          18
 
 POTCAR:   PAW_PBE In_d 06Sep2000                 
   VRHFIN =In: s2p1                                                             
   LEXCH  = PE                                                                  
   EATOM  =  1576.8738 eV,  115.8970 Ry                                         
                                                                                
   TITEL  = PAW_PBE In_d 06Sep2000                                              
   LULTRA =        F    use ultrasoft PP ?                                      
   IUNSCR =        1    unscreen: 0-lin 1-nonlin 2-no                           
   RPACOR =    2.200    partial core radius                                     
   POMASS =  114.820; ZVAL   =   13.000    mass and valenz                      
   RCORE  =    2.500    outmost cutoff radius                                   
   RWIGS  =    3.170; RWIGS  =    1.677    wigner-seitz radius (au A)           
   ENMAX  =  239.218; ENMIN  =  179.413 eV                                      
   ICORE  =        3    local potential                                         
   LCOR   =        T    correct aug charges                                     
   LPAW   =        T    paw PP                                                  
   EAUG   =  449.704                                                            
   DEXC   =    -.003                                                            
   RMAX   =    2.981    core radius for proj-oper                               
   RAUG   =    1.300    factor for augmentation sphere                          
   RDEP   =    2.630    radius for radial grids                                 
   QCUT   =   -4.193; QGAM   =    8.386    optimization parameters              
                                                                                
   Description                                                                  
     l     E      TYP  RCUT    TYP  RCUT                                        
     2   .000     23  2.500                                                     
     2  -.100     23  2.500                                                     
     0   .000     23  2.500                                                     
     0   .000     23  2.500                                                     
     1   .000     23  2.500                                                     
     1   .000     23  2.500                                                     
     3  -.100      7  2.500                                                     
  local pseudopotential read in
  partial core-charges read in
  atomic valenz-charges read in
  non local Contribution for L=           2  read in
    real space projection operators read in
  non local Contribution for L=           2  read in
    real space projection operators read in
  non local Contribution for L=           0  read in
    real space projection operators read in
  non local Contribution for L=           0  read in
    real space projection operators read in
  non local Contribution for L=           1  read in
    real space projection operators read in
  non local Contribution for L=           1  read in
    real space projection operators read in
    PAW grid and wavefunctions read in
 
   number of l-projection  operators is LMAX  =           6
   number of lm-projection operators is LMMAX =          18
 
 POTCAR:   PAW_PBE Se 06Sep2000                   
   VRHFIN =Se: s2p4                                                             
   LEXCH  = PE                                                                  
   EATOM  =   256.9644 eV,   18.8864 Ry                                         
                                                                                
   TITEL  = PAW_PBE Se 06Sep2000                                                
   LULTRA =        F    use ultrasoft PP ?                                      
   IUNSCR =        1    unscreen: 0-lin 1-nonlin 2-no                           
   RPACOR =    1.900    partial core radius                                     
   POMASS =   78.960; ZVAL   =    6.000    mass and valenz                      
   RCORE  =    2.100    outmost cutoff radius                                   
   RWIGS  =    2.200; RWIGS  =    1.164    wigner-seitz radius (au A)           
   ENMAX  =  211.534; ENMIN  =  158.651 eV                                      
   ICORE  =        3    local potential                                         
   LCOR   =        T    correct aug charges                                     
   LPAW   =        T    paw PP                                                  
   EAUG   =  446.842                                                            
   DEXC   =    -.031                                                            
   RMAX   =    3.170    core radius for proj-oper                               
   RAUG   =    1.300    factor for augmentation sphere                          
   RDEP   =    2.177    radius for radial grids                                 
   QCUT   =   -3.943; QGAM   =    7.886    optimization parameters              
                                                                                
   Description                                                                  
     l     E      TYP  RCUT    TYP  RCUT                                        
     0   .000     23  2.100                                                     
     0   .000     23  2.100                                                     
     1   .000     23  2.100                                                     
     1   .000     23  2.100                                                     
     2   .000     23  2.100                                                     
     3  -.100      7  2.100                                                     
  local pseudopotential read in
  partial core-charges read in
  atomic valenz-charges read in
  non local Contribution for L=           0  read in
    real space projection operators read in
  non local Contribution for L=           0  read in
    real space projection operators read in
  non local Contribution for L=           1  read in
    real space projection operators read in
  non local Contribution for L=           1  read in
    real space projection operators read in
  non local Contribution for L=           2  read in
    real space projection operators read in
    PAW grid and wavefunctions read in
 
   number of l-projection  operators is LMAX  =           5
   number of lm-projection operators is LMMAX =          13
 
 PAW_PBE Cu 05Jan2001                   :
 energy of atom  1       EATOM=-1390.9800
 kinetic energy error for atom=    0.0323 (will be added to EATOM!!)
 PAW_PBE In_d 06Sep2000                 :
 energy of atom  2       EATOM=-1576.8738
 kinetic energy error for atom=    0.0380 (will be added to EATOM!!)
 PAW_PBE Se 06Sep2000                   :
 energy of atom  3       EATOM= -256.9644
 kinetic energy error for atom=    0.0040 (will be added to EATOM!!)
 
 
 POSCAR: Cu1-In1-Se2 'I -4 2 d'  #122            
  positions in direct lattice
  No initial velocities read in
 exchange correlation table for  LEXCH =        8
   RHO(1)=    0.500       N(1)  =     2000
   RHO(2)=  100.500       N(2)  =     4000

 VTST: version 3.1, (03/28/14)

 CHAIN: initializing optimizer
 
 OPT: Using VASP Dynamics algorithm
 CHAIN: Read ICHAIN            0
 
 POSCAR: Cu1-In1-Se2 'I -4 2 d'  #122            
  positions in direct lattice
  No initial velocities read in
 


--------------------------------------------------------------------------------------------------------


 ion  position               nearest neighbor table
   1  0.000  0.500  0.250-   9 2.46  11 2.46  13 2.46  14 2.46
   2  0.000  0.000  0.000-  10 2.46  12 2.46  13 2.46  14 2.46
   3  0.500  0.000  0.750-  10 2.46  12 2.46  15 2.46  16 2.46
   4  0.500  0.500  0.500-   9 2.46  11 2.46  15 2.46  16 2.46
   5  0.000  0.500  0.750-  15 2.56  16 2.56  10 2.56  12 2.56
   6  0.000  0.000  0.500-  15 2.56  16 2.56   9 2.56  11 2.56
   7  0.500  0.000  0.250-  13 2.56  14 2.56   9 2.56  11 2.56
   8  0.500  0.500  0.000-  13 2.56  14 2.56  10 2.56  12 2.56
   9  0.750  0.265  0.375-   1 2.46   4 2.46   6 2.56   7 2.56
  10  0.250  0.765  0.875-   2 2.46   3 2.46   5 2.56   8 2.56
  11  0.250  0.735  0.375-   1 2.46   4 2.46   6 2.56   7 2.56
  12  0.750  0.235  0.875-   2 2.46   3 2.46   5 2.56   8 2.56
  13  0.235  0.250  0.125-   1 2.46   2 2.46   7 2.56   8 2.56
  14  0.765  0.750  0.125-   1 2.46   2 2.46   7 2.56   8 2.56
  15  0.735  0.750  0.625-   3 2.46   4 2.46   5 2.56   6 2.56
  16  0.265  0.250  0.625-   3 2.46   4 2.46   5 2.56   6 2.56
 
  LATTYP: Found a simple tetragonal cell.
 ALAT       =     5.7824000000
 C/A-ratio  =     2.0094078583
  
  Lattice vectors:
  
 A1 = (   5.7824000000,   0.0000000000,   0.0000000000)
 A2 = (   0.0000000000,   5.7824000000,   0.0000000000)
 A3 = (   0.0000000000,   0.0000000000,  11.6192000000)


Analysis of symmetry for initial positions (statically):
=====================================================================
 Subroutine PRICEL returns following result:
 
  LATTYP: Found a body centered tetragonal cell.
 ALAT       =     5.7824000000
 C/A-ratio  =     2.0094078583
  
  Lattice vectors:
  
 A1 = (   2.8912000000,  -2.8912000000,   5.8096000000)
 A2 = (  -2.8912000000,   2.8912000000,   5.8096000000)
 A3 = (  -2.8912000000,  -2.8912000000,  -5.8096000000)
 
   2 primitive cells build up your supercell.
 

 Routine SETGRP: Setting up the symmetry group for a 
 simple tetragonal supercell.


 Subroutine GETGRP returns: Found  8 space group operations
 (whereof  4 operations were pure point group operations)
 out of a pool of 16 trial point group operations.


The static configuration has the point symmetry S_4 .
 The point group associated with its full space group is D_2d.


Analysis of symmetry for dynamics (positions and initial velocities):
=====================================================================
 Subroutine PRICEL returns following result:
 
  LATTYP: Found a body centered tetragonal cell.
 ALAT       =     5.7824000000
 C/A-ratio  =     2.0094078583
  
  Lattice vectors:
  
 A1 = (   2.8912000000,  -2.8912000000,   5.8096000000)
 A2 = (  -2.8912000000,   2.8912000000,   5.8096000000)
 A3 = (  -2.8912000000,  -2.8912000000,  -5.8096000000)
 
   2 primitive cells build up your supercell.
 

 Routine SETGRP: Setting up the symmetry group for a 
 simple tetragonal supercell.


 Subroutine GETGRP returns: Found  8 space group operations
 (whereof  4 operations were pure point group operations)
 out of a pool of 16 trial point group operations.


The dynamic configuration has the point symmetry S_4 .
 The point group associated with its full space group is D_2d.


 Subroutine INISYM returns: Found  8 space group operations
 (whereof  4 operations are pure point group operations),
 and found     2 'primitive' translations

 
 
 KPOINTS: KPOINTS                                 

Automatic generation of k-mesh.
Space group operators:
 irot       det(A)        alpha          n_x          n_y          n_z        tau_x        tau_y        tau_z
    1     1.000000     0.000000     1.000000     0.000000     0.000000     0.000000     0.000000     0.000000
    2    -1.000000    90.000000     0.000000     0.000000    -1.000000     0.000000     0.000000     0.000000
    3     1.000000   180.000000     0.000000     0.000000     1.000000     0.000000     0.000000     0.000000
    4    -1.000000    90.000000     0.000000     0.000000     1.000000     0.000000     0.000000     0.000000
    5     1.000000   180.000000     0.000000     1.000000     0.000000     0.000000    -0.500000     0.250000
    6    -1.000000   180.000000     0.707107     0.707107     0.000000     0.000000    -0.500000     0.250000
    7     1.000000   180.000000     1.000000     0.000000     0.000000     0.000000    -0.500000     0.250000
    8    -1.000000   180.000000     0.707107    -0.707107     0.000000     0.000000    -0.500000     0.250000
 
 Subroutine IBZKPT returns following result:
 ===========================================
 
 Found     63 irreducible k-points:
 
 Following reciprocal coordinates:
            Coordinates               Weight
  0.000000  0.000000  0.000000      1.000000
  0.100000  0.000000  0.000000      4.000000
  0.200000  0.000000  0.000000      4.000000
  0.300000  0.000000  0.000000      4.000000
  0.400000  0.000000  0.000000      4.000000
  0.500000  0.000000  0.000000      2.000000
  0.100000  0.100000  0.000000      4.000000
  0.200000  0.100000  0.000000      8.000000
  0.300000  0.100000  0.000000      8.000000
  0.400000  0.100000  0.000000      8.000000
  0.500000  0.100000  0.000000      4.000000
  0.200000  0.200000  0.000000      4.000000
  0.300000  0.200000  0.000000      8.000000
  0.400000  0.200000  0.000000      8.000000
  0.500000  0.200000  0.000000      4.000000
  0.300000  0.300000  0.000000      4.000000
  0.400000  0.300000  0.000000      8.000000
  0.500000  0.300000  0.000000      4.000000
  0.400000  0.400000  0.000000      4.000000
  0.500000  0.400000  0.000000      4.000000
  0.500000  0.500000  0.000000      1.000000
  0.000000  0.000000  0.200000      2.000000
  0.100000  0.000000  0.200000      8.000000
  0.200000  0.000000  0.200000      8.000000
  0.300000  0.000000  0.200000      8.000000
  0.400000  0.000000  0.200000      8.000000
  0.500000  0.000000  0.200000      4.000000
  0.100000  0.100000  0.200000      8.000000
  0.200000  0.100000  0.200000     16.000000
  0.300000  0.100000  0.200000     16.000000
  0.400000  0.100000  0.200000     16.000000
  0.500000  0.100000  0.200000      8.000000
  0.200000  0.200000  0.200000      8.000000
  0.300000  0.200000  0.200000     16.000000
  0.400000  0.200000  0.200000     16.000000
  0.500000  0.200000  0.200000      8.000000
  0.300000  0.300000  0.200000      8.000000
  0.400000  0.300000  0.200000     16.000000
  0.500000  0.300000  0.200000      8.000000
  0.400000  0.400000  0.200000      8.000000
  0.500000  0.400000  0.200000      8.000000
  0.500000  0.500000  0.200000      2.000000
  0.000000  0.000000  0.400000      2.000000
  0.100000  0.000000  0.400000      8.000000
  0.200000  0.000000  0.400000      8.000000
  0.300000  0.000000  0.400000      8.000000
  0.400000  0.000000  0.400000      8.000000
  0.500000  0.000000  0.400000      4.000000
  0.100000  0.100000  0.400000      8.000000
  0.200000  0.100000  0.400000     16.000000
  0.300000  0.100000  0.400000     16.000000
  0.400000  0.100000  0.400000     16.000000
  0.500000  0.100000  0.400000      8.000000
  0.200000  0.200000  0.400000      8.000000
  0.300000  0.200000  0.400000     16.000000
  0.400000  0.200000  0.400000     16.000000
  0.500000  0.200000  0.400000      8.000000
  0.300000  0.300000  0.400000      8.000000
  0.400000  0.300000  0.400000     16.000000
  0.500000  0.300000  0.400000      8.000000
  0.400000  0.400000  0.400000      8.000000
  0.500000  0.400000  0.400000      8.000000
  0.500000  0.500000  0.400000      2.000000
 
 Following cartesian coordinates:
            Coordinates               Weight
  0.000000  0.000000  0.000000      1.000000
  0.017294  0.000000  0.000000      4.000000
  0.034588  0.000000  0.000000      4.000000
  0.051882  0.000000  0.000000      4.000000
  0.069175  0.000000  0.000000      4.000000
  0.086469  0.000000  0.000000      2.000000
  0.017294  0.017294  0.000000      4.000000
  0.034588  0.017294  0.000000      8.000000
  0.051882  0.017294  0.000000      8.000000
  0.069175  0.017294  0.000000      8.000000
  0.086469  0.017294  0.000000      4.000000
  0.034588  0.034588  0.000000      4.000000
  0.051882  0.034588  0.000000      8.000000
  0.069175  0.034588  0.000000      8.000000
  0.086469  0.034588  0.000000      4.000000
  0.051882  0.051882  0.000000      4.000000
  0.069175  0.051882  0.000000      8.000000
  0.086469  0.051882  0.000000      4.000000
  0.069175  0.069175  0.000000      4.000000
  0.086469  0.069175  0.000000      4.000000
  0.086469  0.086469  0.000000      1.000000
  0.000000  0.000000  0.017213      2.000000
  0.017294  0.000000  0.017213      8.000000
  0.034588  0.000000  0.017213      8.000000
  0.051882  0.000000  0.017213      8.000000
  0.069175  0.000000  0.017213      8.000000
  0.086469  0.000000  0.017213      4.000000
  0.017294  0.017294  0.017213      8.000000
  0.034588  0.017294  0.017213     16.000000
  0.051882  0.017294  0.017213     16.000000
  0.069175  0.017294  0.017213     16.000000
  0.086469  0.017294  0.017213      8.000000
  0.034588  0.034588  0.017213      8.000000
  0.051882  0.034588  0.017213     16.000000
  0.069175  0.034588  0.017213     16.000000
  0.086469  0.034588  0.017213      8.000000
  0.051882  0.051882  0.017213      8.000000
  0.069175  0.051882  0.017213     16.000000
  0.086469  0.051882  0.017213      8.000000
  0.069175  0.069175  0.017213      8.000000
  0.086469  0.069175  0.017213      8.000000
  0.086469  0.086469  0.017213      2.000000
  0.000000  0.000000  0.034426      2.000000
  0.017294  0.000000  0.034426      8.000000
  0.034588  0.000000  0.034426      8.000000
  0.051882  0.000000  0.034426      8.000000
  0.069175  0.000000  0.034426      8.000000
  0.086469  0.000000  0.034426      4.000000
  0.017294  0.017294  0.034426      8.000000
  0.034588  0.017294  0.034426     16.000000
  0.051882  0.017294  0.034426     16.000000
  0.069175  0.017294  0.034426     16.000000
  0.086469  0.017294  0.034426      8.000000
  0.034588  0.034588  0.034426      8.000000
  0.051882  0.034588  0.034426     16.000000
  0.069175  0.034588  0.034426     16.000000
  0.086469  0.034588  0.034426      8.000000
  0.051882  0.051882  0.034426      8.000000
  0.069175  0.051882  0.034426     16.000000
  0.086469  0.051882  0.034426      8.000000
  0.069175  0.069175  0.034426      8.000000
  0.086469  0.069175  0.034426      8.000000
  0.086469  0.086469  0.034426      2.000000
 
 
 Subroutine IBZKPT_HF returns following result:
 ==============================================
 
 Found    500 k-points in 1st BZ
 the following    500 k-points will be used (e.g. in the exchange kernel)
 Following reciprocal coordinates:   # in IRBZ
  0.000000  0.000000  0.000000    0.00200000   1 t-inv F
  0.100000  0.000000  0.000000    0.00200000   2 t-inv F
  0.200000  0.000000  0.000000    0.00200000   3 t-inv F
  0.300000  0.000000  0.000000    0.00200000   4 t-inv F
  0.400000  0.000000  0.000000    0.00200000   5 t-inv F
  0.500000  0.000000  0.000000    0.00200000   6 t-inv F
  0.100000  0.100000  0.000000    0.00200000   7 t-inv F
  0.200000  0.100000  0.000000    0.00200000   8 t-inv F
  0.300000  0.100000  0.000000    0.00200000   9 t-inv F
  0.400000  0.100000  0.000000    0.00200000  10 t-inv F
  0.500000  0.100000  0.000000    0.00200000  11 t-inv F
  0.200000  0.200000  0.000000    0.00200000  12 t-inv F
  0.300000  0.200000  0.000000    0.00200000  13 t-inv F
  0.400000  0.200000  0.000000    0.00200000  14 t-inv F
  0.500000  0.200000  0.000000    0.00200000  15 t-inv F
  0.300000  0.300000  0.000000    0.00200000  16 t-inv F
  0.400000  0.300000  0.000000    0.00200000  17 t-inv F
  0.500000  0.300000  0.000000    0.00200000  18 t-inv F
  0.400000  0.400000  0.000000    0.00200000  19 t-inv F
  0.500000  0.400000  0.000000    0.00200000  20 t-inv F
  0.500000  0.500000  0.000000    0.00200000  21 t-inv F
  0.000000  0.000000  0.200000    0.00200000  22 t-inv F
  0.100000  0.000000  0.200000    0.00200000  23 t-inv F
  0.200000  0.000000  0.200000    0.00200000  24 t-inv F
  0.300000  0.000000  0.200000    0.00200000  25 t-inv F
  0.400000  0.000000  0.200000    0.00200000  26 t-inv F
  0.500000  0.000000  0.200000    0.00200000  27 t-inv F
  0.100000  0.100000  0.200000    0.00200000  28 t-inv F
  0.200000  0.100000  0.200000    0.00200000  29 t-inv F
  0.300000  0.100000  0.200000    0.00200000  30 t-inv F
  0.400000  0.100000  0.200000    0.00200000  31 t-inv F
  0.500000  0.100000  0.200000    0.00200000  32 t-inv F
  0.200000  0.200000  0.200000    0.00200000  33 t-inv F
  0.300000  0.200000  0.200000    0.00200000  34 t-inv F
  0.400000  0.200000  0.200000    0.00200000  35 t-inv F
  0.500000  0.200000  0.200000    0.00200000  36 t-inv F
  0.300000  0.300000  0.200000    0.00200000  37 t-inv F
  0.400000  0.300000  0.200000    0.00200000  38 t-inv F
  0.500000  0.300000  0.200000    0.00200000  39 t-inv F
  0.400000  0.400000  0.200000    0.00200000  40 t-inv F
  0.500000  0.400000  0.200000    0.00200000  41 t-inv F
  0.500000  0.500000  0.200000    0.00200000  42 t-inv F
  0.000000  0.000000  0.400000    0.00200000  43 t-inv F
  0.100000  0.000000  0.400000    0.00200000  44 t-inv F
  0.200000  0.000000  0.400000    0.00200000  45 t-inv F
  0.300000  0.000000  0.400000    0.00200000  46 t-inv F
  0.400000  0.000000  0.400000    0.00200000  47 t-inv F
  0.500000  0.000000  0.400000    0.00200000  48 t-inv F
  0.100000  0.100000  0.400000    0.00200000  49 t-inv F
  0.200000  0.100000  0.400000    0.00200000  50 t-inv F
  0.300000  0.100000  0.400000    0.00200000  51 t-inv F
  0.400000  0.100000  0.400000    0.00200000  52 t-inv F
  0.500000  0.100000  0.400000    0.00200000  53 t-inv F
  0.200000  0.200000  0.400000    0.00200000  54 t-inv F
  0.300000  0.200000  0.400000    0.00200000  55 t-inv F
  0.400000  0.200000  0.400000    0.00200000  56 t-inv F
  0.500000  0.200000  0.400000    0.00200000  57 t-inv F
  0.300000  0.300000  0.400000    0.00200000  58 t-inv F
  0.400000  0.300000  0.400000    0.00200000  59 t-inv F
  0.500000  0.300000  0.400000    0.00200000  60 t-inv F
  0.400000  0.400000  0.400000    0.00200000  61 t-inv F
  0.500000  0.400000  0.400000    0.00200000  62 t-inv F
  0.500000  0.500000  0.400000    0.00200000  63 t-inv F
  0.000000 -0.100000  0.000000    0.00200000   2 t-inv F
 -0.100000  0.000000  0.000000    0.00200000   2 t-inv F
  0.000000  0.100000  0.000000    0.00200000   2 t-inv F
  0.000000 -0.200000  0.000000    0.00200000   3 t-inv F
 -0.200000  0.000000  0.000000    0.00200000   3 t-inv F
  0.000000  0.200000  0.000000    0.00200000   3 t-inv F
  0.000000 -0.300000  0.000000    0.00200000   4 t-inv F
 -0.300000  0.000000  0.000000    0.00200000   4 t-inv F
  0.000000  0.300000  0.000000    0.00200000   4 t-inv F
  0.000000 -0.400000  0.000000    0.00200000   5 t-inv F
 -0.400000  0.000000  0.000000    0.00200000   5 t-inv F
  0.000000  0.400000  0.000000    0.00200000   5 t-inv F
  0.000000 -0.500000  0.000000    0.00200000   6 t-inv F
  0.100000 -0.100000  0.000000    0.00200000   7 t-inv F
 -0.100000 -0.100000  0.000000    0.00200000   7 t-inv F
 -0.100000  0.100000  0.000000    0.00200000   7 t-inv F
  0.100000 -0.200000  0.000000    0.00200000   8 t-inv F
 -0.200000 -0.100000  0.000000    0.00200000   8 t-inv F
 -0.100000  0.200000  0.000000    0.00200000   8 t-inv F
 -0.200000  0.100000  0.000000    0.00200000   8 t-inv F
 -0.100000 -0.200000  0.000000    0.00200000   8 t-inv F
  0.200000 -0.100000  0.000000    0.00200000   8 t-inv F
  0.100000  0.200000  0.000000    0.00200000   8 t-inv F
  0.100000 -0.300000  0.000000    0.00200000   9 t-inv F
 -0.300000 -0.100000  0.000000    0.00200000   9 t-inv F
 -0.100000  0.300000  0.000000    0.00200000   9 t-inv F
 -0.300000  0.100000  0.000000    0.00200000   9 t-inv F
 -0.100000 -0.300000  0.000000    0.00200000   9 t-inv F
  0.300000 -0.100000  0.000000    0.00200000   9 t-inv F
  0.100000  0.300000  0.000000    0.00200000   9 t-inv F
  0.100000 -0.400000  0.000000    0.00200000  10 t-inv F
 -0.400000 -0.100000  0.000000    0.00200000  10 t-inv F
 -0.100000  0.400000  0.000000    0.00200000  10 t-inv F
 -0.400000  0.100000  0.000000    0.00200000  10 t-inv F
 -0.100000 -0.400000  0.000000    0.00200000  10 t-inv F
  0.400000 -0.100000  0.000000    0.00200000  10 t-inv F
  0.100000  0.400000  0.000000    0.00200000  10 t-inv F
  0.100000 -0.500000  0.000000    0.00200000  11 t-inv F
 -0.500000 -0.100000  0.000000    0.00200000  11 t-inv F
 -0.100000  0.500000  0.000000    0.00200000  11 t-inv F
  0.200000 -0.200000  0.000000    0.00200000  12 t-inv F
 -0.200000 -0.200000  0.000000    0.00200000  12 t-inv F
 -0.200000  0.200000  0.000000    0.00200000  12 t-inv F
  0.200000 -0.300000  0.000000    0.00200000  13 t-inv F
 -0.300000 -0.200000  0.000000    0.00200000  13 t-inv F
 -0.200000  0.300000  0.000000    0.00200000  13 t-inv F
 -0.300000  0.200000  0.000000    0.00200000  13 t-inv F
 -0.200000 -0.300000  0.000000    0.00200000  13 t-inv F
  0.300000 -0.200000  0.000000    0.00200000  13 t-inv F
  0.200000  0.300000  0.000000    0.00200000  13 t-inv F
  0.200000 -0.400000  0.000000    0.00200000  14 t-inv F
 -0.400000 -0.200000  0.000000    0.00200000  14 t-inv F
 -0.200000  0.400000  0.000000    0.00200000  14 t-inv F
 -0.400000  0.200000  0.000000    0.00200000  14 t-inv F
 -0.200000 -0.400000  0.000000    0.00200000  14 t-inv F
  0.400000 -0.200000  0.000000    0.00200000  14 t-inv F
  0.200000  0.400000  0.000000    0.00200000  14 t-inv F
  0.200000 -0.500000  0.000000    0.00200000  15 t-inv F
 -0.500000 -0.200000  0.000000    0.00200000  15 t-inv F
 -0.200000  0.500000  0.000000    0.00200000  15 t-inv F
  0.300000 -0.300000  0.000000    0.00200000  16 t-inv F
 -0.300000 -0.300000  0.000000    0.00200000  16 t-inv F
 -0.300000  0.300000  0.000000    0.00200000  16 t-inv F
  0.300000 -0.400000  0.000000    0.00200000  17 t-inv F
 -0.400000 -0.300000  0.000000    0.00200000  17 t-inv F
 -0.300000  0.400000  0.000000    0.00200000  17 t-inv F
 -0.400000  0.300000  0.000000    0.00200000  17 t-inv F
 -0.300000 -0.400000  0.000000    0.00200000  17 t-inv F
  0.400000 -0.300000  0.000000    0.00200000  17 t-inv F
  0.300000  0.400000  0.000000    0.00200000  17 t-inv F
  0.300000 -0.500000  0.000000    0.00200000  18 t-inv F
 -0.500000 -0.300000  0.000000    0.00200000  18 t-inv F
 -0.300000  0.500000  0.000000    0.00200000  18 t-inv F
  0.400000 -0.400000  0.000000    0.00200000  19 t-inv F
 -0.400000 -0.400000  0.000000    0.00200000  19 t-inv F
 -0.400000  0.400000  0.000000    0.00200000  19 t-inv F
  0.400000 -0.500000  0.000000    0.00200000  20 t-inv F
 -0.500000 -0.400000  0.000000    0.00200000  20 t-inv F
 -0.400000  0.500000  0.000000    0.00200000  20 t-inv F
  0.000000  0.000000 -0.200000    0.00200000  22 t-inv F
  0.000000 -0.100000 -0.200000    0.00200000  23 t-inv F
 -0.100000  0.000000  0.200000    0.00200000  23 t-inv F
  0.000000  0.100000 -0.200000    0.00200000  23 t-inv F
 -0.100000  0.000000 -0.200000    0.00200000  23 t-inv F
  0.000000 -0.100000  0.200000    0.00200000  23 t-inv F
  0.100000  0.000000 -0.200000    0.00200000  23 t-inv F
  0.000000  0.100000  0.200000    0.00200000  23 t-inv F
  0.000000 -0.200000 -0.200000    0.00200000  24 t-inv F
 -0.200000  0.000000  0.200000    0.00200000  24 t-inv F
  0.000000  0.200000 -0.200000    0.00200000  24 t-inv F
 -0.200000  0.000000 -0.200000    0.00200000  24 t-inv F
  0.000000 -0.200000  0.200000    0.00200000  24 t-inv F
  0.200000  0.000000 -0.200000    0.00200000  24 t-inv F
  0.000000  0.200000  0.200000    0.00200000  24 t-inv F
  0.000000 -0.300000 -0.200000    0.00200000  25 t-inv F
 -0.300000  0.000000  0.200000    0.00200000  25 t-inv F
  0.000000  0.300000 -0.200000    0.00200000  25 t-inv F
 -0.300000  0.000000 -0.200000    0.00200000  25 t-inv F
  0.000000 -0.300000  0.200000    0.00200000  25 t-inv F
  0.300000  0.000000 -0.200000    0.00200000  25 t-inv F
  0.000000  0.300000  0.200000    0.00200000  25 t-inv F
  0.000000 -0.400000 -0.200000    0.00200000  26 t-inv F
 -0.400000  0.000000  0.200000    0.00200000  26 t-inv F
  0.000000  0.400000 -0.200000    0.00200000  26 t-inv F
 -0.400000  0.000000 -0.200000    0.00200000  26 t-inv F
  0.000000 -0.400000  0.200000    0.00200000  26 t-inv F
  0.400000  0.000000 -0.200000    0.00200000  26 t-inv F
  0.000000  0.400000  0.200000    0.00200000  26 t-inv F
  0.000000 -0.500000 -0.200000    0.00200000  27 t-inv F
 -0.500000  0.000000 -0.200000    0.00200000  27 t-inv F
  0.000000 -0.500000  0.200000    0.00200000  27 t-inv F
  0.100000 -0.100000 -0.200000    0.00200000  28 t-inv F
 -0.100000 -0.100000  0.200000    0.00200000  28 t-inv F
 -0.100000  0.100000 -0.200000    0.00200000  28 t-inv F
  0.100000 -0.200000 -0.200000    0.00200000  29 t-inv F
 -0.200000 -0.100000  0.200000    0.00200000  29 t-inv F
 -0.100000  0.200000 -0.200000    0.00200000  29 t-inv F
 -0.200000  0.100000 -0.200000    0.00200000  29 t-inv F
 -0.100000 -0.200000  0.200000    0.00200000  29 t-inv F
  0.200000 -0.100000 -0.200000    0.00200000  29 t-inv F
  0.100000  0.200000  0.200000    0.00200000  29 t-inv F
  0.100000 -0.300000 -0.200000    0.00200000  30 t-inv F
 -0.300000 -0.100000  0.200000    0.00200000  30 t-inv F
 -0.100000  0.300000 -0.200000    0.00200000  30 t-inv F
 -0.300000  0.100000 -0.200000    0.00200000  30 t-inv F
 -0.100000 -0.300000  0.200000    0.00200000  30 t-inv F
  0.300000 -0.100000 -0.200000    0.00200000  30 t-inv F
  0.100000  0.300000  0.200000    0.00200000  30 t-inv F
  0.100000 -0.400000 -0.200000    0.00200000  31 t-inv F
 -0.400000 -0.100000  0.200000    0.00200000  31 t-inv F
 -0.100000  0.400000 -0.200000    0.00200000  31 t-inv F
 -0.400000  0.100000 -0.200000    0.00200000  31 t-inv F
 -0.100000 -0.400000  0.200000    0.00200000  31 t-inv F
  0.400000 -0.100000 -0.200000    0.00200000  31 t-inv F
  0.100000  0.400000  0.200000    0.00200000  31 t-inv F
  0.100000 -0.500000 -0.200000    0.00200000  32 t-inv F
 -0.500000 -0.100000  0.200000    0.00200000  32 t-inv F
 -0.100000  0.500000 -0.200000    0.00200000  32 t-inv F
 -0.500000  0.100000 -0.200000    0.00200000  32 t-inv F
 -0.100000 -0.500000  0.200000    0.00200000  32 t-inv F
  0.500000 -0.100000 -0.200000    0.00200000  32 t-inv F
  0.100000  0.500000  0.200000    0.00200000  32 t-inv F
  0.200000 -0.200000 -0.200000    0.00200000  33 t-inv F
 -0.200000 -0.200000  0.200000    0.00200000  33 t-inv F
 -0.200000  0.200000 -0.200000    0.00200000  33 t-inv F
  0.200000 -0.300000 -0.200000    0.00200000  34 t-inv F
 -0.300000 -0.200000  0.200000    0.00200000  34 t-inv F
 -0.200000  0.300000 -0.200000    0.00200000  34 t-inv F
 -0.300000  0.200000 -0.200000    0.00200000  34 t-inv F
 -0.200000 -0.300000  0.200000    0.00200000  34 t-inv F
  0.300000 -0.200000 -0.200000    0.00200000  34 t-inv F
  0.200000  0.300000  0.200000    0.00200000  34 t-inv F
  0.200000 -0.400000 -0.200000    0.00200000  35 t-inv F
 -0.400000 -0.200000  0.200000    0.00200000  35 t-inv F
 -0.200000  0.400000 -0.200000    0.00200000  35 t-inv F
 -0.400000  0.200000 -0.200000    0.00200000  35 t-inv F
 -0.200000 -0.400000  0.200000    0.00200000  35 t-inv F
  0.400000 -0.200000 -0.200000    0.00200000  35 t-inv F
  0.200000  0.400000  0.200000    0.00200000  35 t-inv F
  0.200000 -0.500000 -0.200000    0.00200000  36 t-inv F
 -0.500000 -0.200000  0.200000    0.00200000  36 t-inv F
 -0.200000  0.500000 -0.200000    0.00200000  36 t-inv F
 -0.500000  0.200000 -0.200000    0.00200000  36 t-inv F
 -0.200000 -0.500000  0.200000    0.00200000  36 t-inv F
  0.500000 -0.200000 -0.200000    0.00200000  36 t-inv F
  0.200000  0.500000  0.200000    0.00200000  36 t-inv F
  0.300000 -0.300000 -0.200000    0.00200000  37 t-inv F
 -0.300000 -0.300000  0.200000    0.00200000  37 t-inv F
 -0.300000  0.300000 -0.200000    0.00200000  37 t-inv F
  0.300000 -0.400000 -0.200000    0.00200000  38 t-inv F
 -0.400000 -0.300000  0.200000    0.00200000  38 t-inv F
 -0.300000  0.400000 -0.200000    0.00200000  38 t-inv F
 -0.400000  0.300000 -0.200000    0.00200000  38 t-inv F
 -0.300000 -0.400000  0.200000    0.00200000  38 t-inv F
  0.400000 -0.300000 -0.200000    0.00200000  38 t-inv F
  0.300000  0.400000  0.200000    0.00200000  38 t-inv F
  0.300000 -0.500000 -0.200000    0.00200000  39 t-inv F
 -0.500000 -0.300000  0.200000    0.00200000  39 t-inv F
 -0.300000  0.500000 -0.200000    0.00200000  39 t-inv F
 -0.500000  0.300000 -0.200000    0.00200000  39 t-inv F
 -0.300000 -0.500000  0.200000    0.00200000  39 t-inv F
  0.500000 -0.300000 -0.200000    0.00200000  39 t-inv F
  0.300000  0.500000  0.200000    0.00200000  39 t-inv F
  0.400000 -0.400000 -0.200000    0.00200000  40 t-inv F
 -0.400000 -0.400000  0.200000    0.00200000  40 t-inv F
 -0.400000  0.400000 -0.200000    0.00200000  40 t-inv F
  0.400000 -0.500000 -0.200000    0.00200000  41 t-inv F
 -0.500000 -0.400000  0.200000    0.00200000  41 t-inv F
 -0.400000  0.500000 -0.200000    0.00200000  41 t-inv F
 -0.500000  0.400000 -0.200000    0.00200000  41 t-inv F
 -0.400000 -0.500000  0.200000    0.00200000  41 t-inv F
  0.500000 -0.400000 -0.200000    0.00200000  41 t-inv F
  0.400000  0.500000  0.200000    0.00200000  41 t-inv F
  0.500000 -0.500000 -0.200000    0.00200000  42 t-inv F
  0.000000  0.000000 -0.400000    0.00200000  43 t-inv F
  0.000000 -0.100000 -0.400000    0.00200000  44 t-inv F
 -0.100000  0.000000  0.400000    0.00200000  44 t-inv F
  0.000000  0.100000 -0.400000    0.00200000  44 t-inv F
 -0.100000  0.000000 -0.400000    0.00200000  44 t-inv F
  0.000000 -0.100000  0.400000    0.00200000  44 t-inv F
  0.100000  0.000000 -0.400000    0.00200000  44 t-inv F
  0.000000  0.100000  0.400000    0.00200000  44 t-inv F
  0.000000 -0.200000 -0.400000    0.00200000  45 t-inv F
 -0.200000  0.000000  0.400000    0.00200000  45 t-inv F
  0.000000  0.200000 -0.400000    0.00200000  45 t-inv F
 -0.200000  0.000000 -0.400000    0.00200000  45 t-inv F
  0.000000 -0.200000  0.400000    0.00200000  45 t-inv F
  0.200000  0.000000 -0.400000    0.00200000  45 t-inv F
  0.000000  0.200000  0.400000    0.00200000  45 t-inv F
  0.000000 -0.300000 -0.400000    0.00200000  46 t-inv F
 -0.300000  0.000000  0.400000    0.00200000  46 t-inv F
  0.000000  0.300000 -0.400000    0.00200000  46 t-inv F
 -0.300000  0.000000 -0.400000    0.00200000  46 t-inv F
  0.000000 -0.300000  0.400000    0.00200000  46 t-inv F
  0.300000  0.000000 -0.400000    0.00200000  46 t-inv F
  0.000000  0.300000  0.400000    0.00200000  46 t-inv F
  0.000000 -0.400000 -0.400000    0.00200000  47 t-inv F
 -0.400000  0.000000  0.400000    0.00200000  47 t-inv F
  0.000000  0.400000 -0.400000    0.00200000  47 t-inv F
 -0.400000  0.000000 -0.400000    0.00200000  47 t-inv F
  0.000000 -0.400000  0.400000    0.00200000  47 t-inv F
  0.400000  0.000000 -0.400000    0.00200000  47 t-inv F
  0.000000  0.400000  0.400000    0.00200000  47 t-inv F
  0.000000 -0.500000 -0.400000    0.00200000  48 t-inv F
 -0.500000  0.000000 -0.400000    0.00200000  48 t-inv F
  0.000000 -0.500000  0.400000    0.00200000  48 t-inv F
  0.100000 -0.100000 -0.400000    0.00200000  49 t-inv F
 -0.100000 -0.100000  0.400000    0.00200000  49 t-inv F
 -0.100000  0.100000 -0.400000    0.00200000  49 t-inv F
  0.100000 -0.200000 -0.400000    0.00200000  50 t-inv F
 -0.200000 -0.100000  0.400000    0.00200000  50 t-inv F
 -0.100000  0.200000 -0.400000    0.00200000  50 t-inv F
 -0.200000  0.100000 -0.400000    0.00200000  50 t-inv F
 -0.100000 -0.200000  0.400000    0.00200000  50 t-inv F
  0.200000 -0.100000 -0.400000    0.00200000  50 t-inv F
  0.100000  0.200000  0.400000    0.00200000  50 t-inv F
  0.100000 -0.300000 -0.400000    0.00200000  51 t-inv F
 -0.300000 -0.100000  0.400000    0.00200000  51 t-inv F
 -0.100000  0.300000 -0.400000    0.00200000  51 t-inv F
 -0.300000  0.100000 -0.400000    0.00200000  51 t-inv F
 -0.100000 -0.300000  0.400000    0.00200000  51 t-inv F
  0.300000 -0.100000 -0.400000    0.00200000  51 t-inv F
  0.100000  0.300000  0.400000    0.00200000  51 t-inv F
  0.100000 -0.400000 -0.400000    0.00200000  52 t-inv F
 -0.400000 -0.100000  0.400000    0.00200000  52 t-inv F
 -0.100000  0.400000 -0.400000    0.00200000  52 t-inv F
 -0.400000  0.100000 -0.400000    0.00200000  52 t-inv F
 -0.100000 -0.400000  0.400000    0.00200000  52 t-inv F
  0.400000 -0.100000 -0.400000    0.00200000  52 t-inv F
  0.100000  0.400000  0.400000    0.00200000  52 t-inv F
  0.100000 -0.500000 -0.400000    0.00200000  53 t-inv F
 -0.500000 -0.100000  0.400000    0.00200000  53 t-inv F
 -0.100000  0.500000 -0.400000    0.00200000  53 t-inv F
 -0.500000  0.100000 -0.400000    0.00200000  53 t-inv F
 -0.100000 -0.500000  0.400000    0.00200000  53 t-inv F
  0.500000 -0.100000 -0.400000    0.00200000  53 t-inv F
  0.100000  0.500000  0.400000    0.00200000  53 t-inv F
  0.200000 -0.200000 -0.400000    0.00200000  54 t-inv F
 -0.200000 -0.200000  0.400000    0.00200000  54 t-inv F
 -0.200000  0.200000 -0.400000    0.00200000  54 t-inv F
  0.200000 -0.300000 -0.400000    0.00200000  55 t-inv F
 -0.300000 -0.200000  0.400000    0.00200000  55 t-inv F
 -0.200000  0.300000 -0.400000    0.00200000  55 t-inv F
 -0.300000  0.200000 -0.400000    0.00200000  55 t-inv F
 -0.200000 -0.300000  0.400000    0.00200000  55 t-inv F
  0.300000 -0.200000 -0.400000    0.00200000  55 t-inv F
  0.200000  0.300000  0.400000    0.00200000  55 t-inv F
  0.200000 -0.400000 -0.400000    0.00200000  56 t-inv F
 -0.400000 -0.200000  0.400000    0.00200000  56 t-inv F
 -0.200000  0.400000 -0.400000    0.00200000  56 t-inv F
 -0.400000  0.200000 -0.400000    0.00200000  56 t-inv F
 -0.200000 -0.400000  0.400000    0.00200000  56 t-inv F
  0.400000 -0.200000 -0.400000    0.00200000  56 t-inv F
  0.200000  0.400000  0.400000    0.00200000  56 t-inv F
  0.200000 -0.500000 -0.400000    0.00200000  57 t-inv F
 -0.500000 -0.200000  0.400000    0.00200000  57 t-inv F
 -0.200000  0.500000 -0.400000    0.00200000  57 t-inv F
 -0.500000  0.200000 -0.400000    0.00200000  57 t-inv F
 -0.200000 -0.500000  0.400000    0.00200000  57 t-inv F
  0.500000 -0.200000 -0.400000    0.00200000  57 t-inv F
  0.200000  0.500000  0.400000    0.00200000  57 t-inv F
  0.300000 -0.300000 -0.400000    0.00200000  58 t-inv F
 -0.300000 -0.300000  0.400000    0.00200000  58 t-inv F
 -0.300000  0.300000 -0.400000    0.00200000  58 t-inv F
  0.300000 -0.400000 -0.400000    0.00200000  59 t-inv F
 -0.400000 -0.300000  0.400000    0.00200000  59 t-inv F
 -0.300000  0.400000 -0.400000    0.00200000  59 t-inv F
 -0.400000  0.300000 -0.400000    0.00200000  59 t-inv F
 -0.300000 -0.400000  0.400000    0.00200000  59 t-inv F
  0.400000 -0.300000 -0.400000    0.00200000  59 t-inv F
  0.300000  0.400000  0.400000    0.00200000  59 t-inv F
  0.300000 -0.500000 -0.400000    0.00200000  60 t-inv F
 -0.500000 -0.300000  0.400000    0.00200000  60 t-inv F
 -0.300000  0.500000 -0.400000    0.00200000  60 t-inv F
 -0.500000  0.300000 -0.400000    0.00200000  60 t-inv F
 -0.300000 -0.500000  0.400000    0.00200000  60 t-inv F
  0.500000 -0.300000 -0.400000    0.00200000  60 t-inv F
  0.300000  0.500000  0.400000    0.00200000  60 t-inv F
  0.400000 -0.400000 -0.400000    0.00200000  61 t-inv F
 -0.400000 -0.400000  0.400000    0.00200000  61 t-inv F
 -0.400000  0.400000 -0.400000    0.00200000  61 t-inv F
  0.400000 -0.500000 -0.400000    0.00200000  62 t-inv F
 -0.500000 -0.400000  0.400000    0.00200000  62 t-inv F
 -0.400000  0.500000 -0.400000    0.00200000  62 t-inv F
 -0.500000  0.400000 -0.400000    0.00200000  62 t-inv F
 -0.400000 -0.500000  0.400000    0.00200000  62 t-inv F
  0.500000 -0.400000 -0.400000    0.00200000  62 t-inv F
  0.400000  0.500000  0.400000    0.00200000  62 t-inv F
  0.500000 -0.500000 -0.400000    0.00200000  63 t-inv F
 -0.100000 -0.100000 -0.200000    0.00200000  28 t-inv T
 -0.100000  0.100000  0.200000    0.00200000  28 t-inv T
  0.100000  0.100000 -0.200000    0.00200000  28 t-inv T
  0.100000 -0.100000  0.200000    0.00200000  28 t-inv T
 -0.200000 -0.100000 -0.200000    0.00200000  29 t-inv T
 -0.100000  0.200000  0.200000    0.00200000  29 t-inv T
  0.200000  0.100000 -0.200000    0.00200000  29 t-inv T
  0.100000 -0.200000  0.200000    0.00200000  29 t-inv T
  0.200000 -0.100000  0.200000    0.00200000  29 t-inv T
  0.100000  0.200000 -0.200000    0.00200000  29 t-inv T
 -0.200000  0.100000  0.200000    0.00200000  29 t-inv T
 -0.100000 -0.200000 -0.200000    0.00200000  29 t-inv T
 -0.300000 -0.100000 -0.200000    0.00200000  30 t-inv T
 -0.100000  0.300000  0.200000    0.00200000  30 t-inv T
  0.300000  0.100000 -0.200000    0.00200000  30 t-inv T
  0.100000 -0.300000  0.200000    0.00200000  30 t-inv T
  0.300000 -0.100000  0.200000    0.00200000  30 t-inv T
  0.100000  0.300000 -0.200000    0.00200000  30 t-inv T
 -0.300000  0.100000  0.200000    0.00200000  30 t-inv T
 -0.100000 -0.300000 -0.200000    0.00200000  30 t-inv T
 -0.400000 -0.100000 -0.200000    0.00200000  31 t-inv T
 -0.100000  0.400000  0.200000    0.00200000  31 t-inv T
  0.400000  0.100000 -0.200000    0.00200000  31 t-inv T
  0.100000 -0.400000  0.200000    0.00200000  31 t-inv T
  0.400000 -0.100000  0.200000    0.00200000  31 t-inv T
  0.100000  0.400000 -0.200000    0.00200000  31 t-inv T
 -0.400000  0.100000  0.200000    0.00200000  31 t-inv T
 -0.100000 -0.400000 -0.200000    0.00200000  31 t-inv T
 -0.200000 -0.200000 -0.200000    0.00200000  33 t-inv T
 -0.200000  0.200000  0.200000    0.00200000  33 t-inv T
  0.200000  0.200000 -0.200000    0.00200000  33 t-inv T
  0.200000 -0.200000  0.200000    0.00200000  33 t-inv T
 -0.300000 -0.200000 -0.200000    0.00200000  34 t-inv T
 -0.200000  0.300000  0.200000    0.00200000  34 t-inv T
  0.300000  0.200000 -0.200000    0.00200000  34 t-inv T
  0.200000 -0.300000  0.200000    0.00200000  34 t-inv T
  0.300000 -0.200000  0.200000    0.00200000  34 t-inv T
  0.200000  0.300000 -0.200000    0.00200000  34 t-inv T
 -0.300000  0.200000  0.200000    0.00200000  34 t-inv T
 -0.200000 -0.300000 -0.200000    0.00200000  34 t-inv T
 -0.400000 -0.200000 -0.200000    0.00200000  35 t-inv T
 -0.200000  0.400000  0.200000    0.00200000  35 t-inv T
  0.400000  0.200000 -0.200000    0.00200000  35 t-inv T
  0.200000 -0.400000  0.200000    0.00200000  35 t-inv T
  0.400000 -0.200000  0.200000    0.00200000  35 t-inv T
  0.200000  0.400000 -0.200000    0.00200000  35 t-inv T
 -0.400000  0.200000  0.200000    0.00200000  35 t-inv T
 -0.200000 -0.400000 -0.200000    0.00200000  35 t-inv T
 -0.300000 -0.300000 -0.200000    0.00200000  37 t-inv T
 -0.300000  0.300000  0.200000    0.00200000  37 t-inv T
  0.300000  0.300000 -0.200000    0.00200000  37 t-inv T
  0.300000 -0.300000  0.200000    0.00200000  37 t-inv T
 -0.400000 -0.300000 -0.200000    0.00200000  38 t-inv T
 -0.300000  0.400000  0.200000    0.00200000  38 t-inv T
  0.400000  0.300000 -0.200000    0.00200000  38 t-inv T
  0.300000 -0.400000  0.200000    0.00200000  38 t-inv T
  0.400000 -0.300000  0.200000    0.00200000  38 t-inv T
  0.300000  0.400000 -0.200000    0.00200000  38 t-inv T
 -0.400000  0.300000  0.200000    0.00200000  38 t-inv T
 -0.300000 -0.400000 -0.200000    0.00200000  38 t-inv T
 -0.400000 -0.400000 -0.200000    0.00200000  40 t-inv T
 -0.400000  0.400000  0.200000    0.00200000  40 t-inv T
  0.400000  0.400000 -0.200000    0.00200000  40 t-inv T
  0.400000 -0.400000  0.200000    0.00200000  40 t-inv T
 -0.100000 -0.100000 -0.400000    0.00200000  49 t-inv T
 -0.100000  0.100000  0.400000    0.00200000  49 t-inv T
  0.100000  0.100000 -0.400000    0.00200000  49 t-inv T
  0.100000 -0.100000  0.400000    0.00200000  49 t-inv T
 -0.200000 -0.100000 -0.400000    0.00200000  50 t-inv T
 -0.100000  0.200000  0.400000    0.00200000  50 t-inv T
  0.200000  0.100000 -0.400000    0.00200000  50 t-inv T
  0.100000 -0.200000  0.400000    0.00200000  50 t-inv T
  0.200000 -0.100000  0.400000    0.00200000  50 t-inv T
  0.100000  0.200000 -0.400000    0.00200000  50 t-inv T
 -0.200000  0.100000  0.400000    0.00200000  50 t-inv T
 -0.100000 -0.200000 -0.400000    0.00200000  50 t-inv T
 -0.300000 -0.100000 -0.400000    0.00200000  51 t-inv T
 -0.100000  0.300000  0.400000    0.00200000  51 t-inv T
  0.300000  0.100000 -0.400000    0.00200000  51 t-inv T
  0.100000 -0.300000  0.400000    0.00200000  51 t-inv T
  0.300000 -0.100000  0.400000    0.00200000  51 t-inv T
  0.100000  0.300000 -0.400000    0.00200000  51 t-inv T
 -0.300000  0.100000  0.400000    0.00200000  51 t-inv T
 -0.100000 -0.300000 -0.400000    0.00200000  51 t-inv T
 -0.400000 -0.100000 -0.400000    0.00200000  52 t-inv T
 -0.100000  0.400000  0.400000    0.00200000  52 t-inv T
  0.400000  0.100000 -0.400000    0.00200000  52 t-inv T
  0.100000 -0.400000  0.400000    0.00200000  52 t-inv T
  0.400000 -0.100000  0.400000    0.00200000  52 t-inv T
  0.100000  0.400000 -0.400000    0.00200000  52 t-inv T
 -0.400000  0.100000  0.400000    0.00200000  52 t-inv T
 -0.100000 -0.400000 -0.400000    0.00200000  52 t-inv T
 -0.200000 -0.200000 -0.400000    0.00200000  54 t-inv T
 -0.200000  0.200000  0.400000    0.00200000  54 t-inv T
  0.200000  0.200000 -0.400000    0.00200000  54 t-inv T
  0.200000 -0.200000  0.400000    0.00200000  54 t-inv T
 -0.300000 -0.200000 -0.400000    0.00200000  55 t-inv T
 -0.200000  0.300000  0.400000    0.00200000  55 t-inv T
  0.300000  0.200000 -0.400000    0.00200000  55 t-inv T
  0.200000 -0.300000  0.400000    0.00200000  55 t-inv T
  0.300000 -0.200000  0.400000    0.00200000  55 t-inv T
  0.200000  0.300000 -0.400000    0.00200000  55 t-inv T
 -0.300000  0.200000  0.400000    0.00200000  55 t-inv T
 -0.200000 -0.300000 -0.400000    0.00200000  55 t-inv T
 -0.400000 -0.200000 -0.400000    0.00200000  56 t-inv T
 -0.200000  0.400000  0.400000    0.00200000  56 t-inv T
  0.400000  0.200000 -0.400000    0.00200000  56 t-inv T
  0.200000 -0.400000  0.400000    0.00200000  56 t-inv T
  0.400000 -0.200000  0.400000    0.00200000  56 t-inv T
  0.200000  0.400000 -0.400000    0.00200000  56 t-inv T
 -0.400000  0.200000  0.400000    0.00200000  56 t-inv T
 -0.200000 -0.400000 -0.400000    0.00200000  56 t-inv T
 -0.300000 -0.300000 -0.400000    0.00200000  58 t-inv T
 -0.300000  0.300000  0.400000    0.00200000  58 t-inv T
  0.300000  0.300000 -0.400000    0.00200000  58 t-inv T
  0.300000 -0.300000  0.400000    0.00200000  58 t-inv T
 -0.400000 -0.300000 -0.400000    0.00200000  59 t-inv T
 -0.300000  0.400000  0.400000    0.00200000  59 t-inv T
  0.400000  0.300000 -0.400000    0.00200000  59 t-inv T
  0.300000 -0.400000  0.400000    0.00200000  59 t-inv T
  0.400000 -0.300000  0.400000    0.00200000  59 t-inv T
  0.300000  0.400000 -0.400000    0.00200000  59 t-inv T
 -0.400000  0.300000  0.400000    0.00200000  59 t-inv T
 -0.300000 -0.400000 -0.400000    0.00200000  59 t-inv T
 -0.400000 -0.400000 -0.400000    0.00200000  61 t-inv T
 -0.400000  0.400000  0.400000    0.00200000  61 t-inv T
  0.400000  0.400000 -0.400000    0.00200000  61 t-inv T
  0.400000 -0.400000  0.400000    0.00200000  61 t-inv T


--------------------------------------------------------------------------------------------------------




 Dimension of arrays:
   k-points           NKPTS =     63   k-points in BZ     NKDIM =    500   number of bands    NBANDS=    640
   number of dos      NEDOS =    301   number of ions     NIONS =     16
   non local maximal  LDIM  =      6   non local SUM 2l+1 LMDIM =     18
   total plane-waves  NPLWV =  90720
   max r-space proj   IRMAX =      1   max aug-charges    IRDMAX=  81658
   dimension x,y,z NGX =    36 NGY =   36 NGZ =   70
   dimension x,y,z NGXF=    72 NGYF=   72 NGZF=  140
   support grid    NGXF=   144 NGYF=  144 NGZF=  280
   ions per type =               4   4   8
 NGX,Y,Z   is equivalent  to a cutoff of  10.35, 10.35, 10.02 a.u.
 NGXF,Y,Z  is equivalent  to a cutoff of  20.70, 20.70, 20.03 a.u.


 I would recommend the setting:
   dimension x,y,z NGX =    33 NGY =   33 NGZ =   66
 SYSTEM =  CuInSe                                  
 POSCAR =  Cu1-In1-Se2 'I -4 2 d'  #122            

 Startparameter for this run:
   NWRITE =      2    write-flag & timer
   PREC   = accura    normal or accurate (medium, high low for compatibility)
   ISTART =      1    job   : 0-new  1-cont  2-samecut
   ICHARG =      0    charge: 1-file 2-atom 10-const
   ISPIN  =      1    spin polarized calculation?
   LNONCOLLINEAR =      F non collinear calculations
   LSORBIT =      F    spin-orbit coupling
   INIWAV =      1    electr: 0-lowe 1-rand  2-diag
   LASPH  =      F    aspherical Exc in radial PAW
   METAGGA=      F    non-selfconsistent MetaGGA calc.

 Electronic Relaxation 1
   ENCUT  =  300.0 eV  22.05 Ry    4.70 a.u.   8.17  8.17 16.41*2*pi/ulx,y,z
   ENINI  =  300.0     initial cutoff
   ENAUG  =  516.5 eV  augmentation charge cutoff
   NELM   =      1;   NELMIN=  2; NELMDL=  0     # of ELM steps 
   EDIFF  = 0.1E-03   stopping-criterion for ELM
   LREAL  =      F    real-space projection
   NLSPLINE    = F    spline interpolate recip. space projectors
   LCOMPAT=      F    compatible to vasp.4.4
   GGA_COMPAT  = T    GGA compatible to vasp.4.4-vasp.4.6
   LMAXPAW     = -100 max onsite density
   LMAXMIX     =    4 max onsite mixed and CHGCAR
   VOSKOWN=      0    Vosko Wilk Nusair interpolation
   ROPT   =    0.00000   0.00000   0.00000
 Ionic relaxation
   EDIFFG = 0.1E-02   stopping-criterion for IOM
   NSW    =      0    number of steps for IOM
   NBLOCK =      1;   KBLOCK =      1    inner block; outer block 
   IBRION =     -1    ionic relax: 0-MD 1-quasi-New 2-CG
   NFREE  =      0    steps in history (QN), initial steepest desc. (CG)
   ISIF   =      0    stress and relaxation
   IWAVPR =     10    prediction:  0-non 1-charg 2-wave 3-comb
   ISYM   =      3    0-nonsym 1-usesym 2-fastsym
   LCORR  =      T    Harris-Foulkes like correction to forces

   POTIM  = 0.5000    time-step for ionic-motion
   TEIN   =    0.0    initial temperature
   TEBEG  =    0.0;   TEEND  =   0.0 temperature during run
   SMASS  =  -3.00    Nose mass-parameter (am)
   estimated Nose-frequenzy (Omega)   =  0.10E-29 period in steps =****** mass=  -0.764E-27a.u.
   SCALEE = 1.0000    scale energy and forces
   NPACO  =    256;   APACO  = 16.0  distance and # of slots for P.C.
   PSTRESS=    0.0 pullay stress

  Mass of Ions in am
   POMASS =  63.55114.82 78.96
  Ionic Valenz
   ZVAL   =  11.00 13.00  6.00
  Atomic Wigner-Seitz radii
   RWIGS  =  -1.00 -1.00 -1.00
  virtual crystal weights 
   VCA    =   1.00  1.00  1.00
   NELECT =     144.0000    total number of electrons
   NUPDOWN=      -1.0000    fix difference up-down

 DOS related values:
   EMIN   =  10.00;   EMAX   =-10.00  energy-range for DOS
   EFERMI =   0.00
   ISMEAR =     0;   SIGMA  =   0.01  broadening in eV -4-tet -1-fermi 0-gaus

 Electronic relaxation 2 (details)
   IALGO  =     38    algorithm
   LDIAG  =      T    sub-space diagonalisation (order eigenvalues)
   LSUBROT=      F    optimize rotation matrix (better conditioning)
   TURBO    =      0    0=normal 1=particle mesh
   IRESTART =      0    0=no restart 2=restart with 2 vectors
   NREBOOT  =      0    no. of reboots
   NMIN     =      0    reboot dimension
   EREF     =   0.00    reference energy to select bands
   IMIX   =      1    mixing-type and parameters
     AMIX     =   0.40;   BMIX     =  1.00
     AMIX_MAG =   1.60;   BMIX_MAG =  1.00
     AMIN     =   0.10
     WC   =   100.;   INIMIX=   1;  MIXPRE=   1;  MAXMIX= -45

 Intra band minimization:
   WEIMIN = 0.0000     energy-eigenvalue tresh-hold
   EBREAK =  0.39E-07  absolut break condition
   DEPER  =   0.30     relativ break condition  

   TIME   =   0.40     timestep for ELM

  volume/ion in A,a.u.               =      24.28       163.86
  Fermi-wavevector in a.u.,A,eV,Ry     =   1.175975  2.222271 18.815737  1.382918
  Thomas-Fermi vector in A             =   2.312347
 
 Write flags
   LWAVE  =      T    write WAVECAR
   LCHARG =      T    write CHGCAR
   LVTOT  =      F    write LOCPOT, total local potential
   LVHAR  =      F    write LOCPOT, Hartree potential only
   LELF   =      F    write electronic localiz. function (ELF)
   LORBIT =     11    0 simple, 1 ext, 2 COOP (PROOUT)


 Dipole corrections
   LMONO  =      F    monopole corrections only (constant potential shift)
   LDIPOL =      F    correct potential (dipole corrections)
   IDIPOL =      0    1-x, 2-y, 3-z, 4-all directions 
   EPSILON=  1.0000000 bulk dielectric constant

 Exchange correlation treatment:
   GGA     =    --    GGA type
   LEXCH   =     8    internal setting for exchange type
   VOSKOWN=      0    Vosko Wilk Nusair interpolation
   EXXOEP  =     0    0=HF, 1=EXX-LHF (local Hartree Fock) 2=EXX OEP
   LHFCALC =     T    Hartree Fock is set to
   LSYMGRAD=     F    symmetrize gradient (conserves proper symmetry)
   PRECFOCK=normal    Normal, Fast or Accurate (Low or Medium for compatibility)
   LRHFCALC=     F    long range Hartree Fock
   LRSCOR  =     F    long range correlation only (use DFT for short range part)
   LTHOMAS =     F    Thomas Fermi screening in HF
   LMODELHF=     F    short range full HF, long range fraction AEXX
   ENCUT4O =  -1.0   cutoff for four orbital integrals eV
   LMAXFOCK=     4    L truncation for augmentation on plane wave grid
   LMAXFOCKAE=   4    L truncation for all-electron charge restoration on plane wave grid
   NMAXFOCKAE=   1    number of basis functions for all-electron charge restoration
   LFOCKAEDFT=     F  apply the AE augmentation even for DFT
   NKREDX  =     5    reduce k-point grid by
   NKREDY  =     5    reduce k-point grid by
   NKREDZ  =     5    reduce k-point grid by
   SHIFTRED=     F    shift reduced grid of Gamma
   HFKIDENT=     F    idential grid for each k-point
   ODDONLY =     F    use only odd q-grid points
   EVENONLY=     F    use only even q-grid points
   HFALPHA =   -1.0000 decay constant for conv. correction
   MCALPHA =    0.0000 extent of test-charge in conv. correction in multipole expansion
   AEXX    =    1.0000 exact exchange contribution
   HFSCREEN=    0.0000 screening length (either q_TF or 0.3 A-1)
   HFSCREENC=   0.0000 screening length for correlation (either q_TF or 0.3 A-1)
   HFRCUT  =    0.0000 spherical cutoff for potential kernel
   ALDAX   =    0.0000 LDA exchange part
   AGGAX   =    0.0000 GGA exchange part
   ALDAC   =    0.0000 LDA correlation
   AGGAC   =    0.0000 GGA correlation
   NBANDSGWLOW=     1    first orbital included in HF term
   ENCUTFOCK=   0.0 apply spherical cutoff to Coloumb kernel
 Linear response parameters
   LEPSILON=     F    determine dielectric tensor
   LRPA    =     F    only Hartree local field effects (RPA)
   LNABLA  =     F    use nabla operator in PAW spheres
   LVEL    =     F    velocity operator in full k-point grid
   LINTERFAST=   F  fast interpolation
   KINTER  =     0    interpolate to denser k-point grid
   CSHIFT  =0.1000    complex shift for real part using Kramers Kronig
   OMEGAMAX=  -1.0    maximum frequency
   DEG_THRESHOLD= 0.2000000E-02 threshold for treating states as degnerate
   RTIME   =    0.100 relaxation time in fs

 Orbital magnetization related:
   ORBITALMAG=     F  switch on orbital magnetization
   LCHIMAG   =     F  perturbation theory with respect to B field
   DQ        =  0.001000  dq finite difference perturbation B field

 Response functions by sum over occupied states:
   ALGO    =GW0        execute GW part
   LFXC    =     F    include DFT xc kernel in TD-HF and W
   LADDER  =     F    particle hole ladder diagrams for BSE/TD-HF and W (Nano-quanta)
   LHARTREE=     T    include Hartree terms (bubbles-RPA) in BSE/TD-HF
   IBSE    =     0    BSE modus: 0 exact, 1 time-evolution (store matrix), 10 time-evolution (implicit)
   KPOINT  =    -1   0   0   0    k-point index at which BSE equation is solved (and G at which response is eval.)
   LTRIPLET=     F    triplet instead of singlet excitation (BSE only)
   LRSRPA  =     F    range separated RPA (total - short) in ACFDT
   LTCTE   =     F    use test-charge test-electron dielectric function
   LTETE   =     F    use test-electron test-electron dielectric function
   LFXCEPS =     F    determine f_xc=epsilon-1/Xi Sharma and Gross kernel
   LFXHEG  =     F    model exchange using f_x(G,k_F) from free electron gas
   NATURALO=     0    0 natural orbitals, 1 only virtual, 2 only occupied-virtual rotation
   L2ORDER =     F    2nd order terms only
   LUSEW   =     F    use screened W from WXXXX.tmp files instead of (screened) HF kernel
   ENCUTGW =  80.0    cutoff for response function in eV
   ENCUTGWSOFT =  80.0 soft cutoff for Coulomb kernel in GW response function in eV
   ENCUTLF =  80.0    cutoff for local field effects
   LMAXMP2 =    -1    maximum L for one center terms
   SCISSOR =   0.0    scissor correction
   NOMEGA  =   128    number of frequencies
   NOMEGAR =   128    number of frequencies along real axis
   NBANDSGW=    -1    number of bands for which selfenergy shift is calculated
   NBANDSGWLOW=     1 lowest band included in GW (to exclude core correlation)
   NBANDSO =    -1    number of bands for electron-hole treatment (occupied)
   NBANDSV =    -1    number of bands for electron-hole treatment (virtual)
   NELM    =     1    number of iterations in solving QP/BSE equation
   NELMHF  =     1    number of iterations in the inner HF iteration
   DIM     =     3    dimensionality of system (0=0D molecules, 3=3D)
   ANTIRES =     0    antiresonant part (0) no TDA (1) w=0 exact (2) accurate
   OMEGAMAX= -30.0    maximum frequency
   OMEGAMIN= -30.000    minimum frequency
   OMEGATL =-200.0    maximum frequency of tail
   OMEGAGRID=     0    grid type (0 default)
   CSHIFT  =-0.100    complex shift used in evaluation of response functions
   SELFENERGY=   F    calculate selfenergy instead of QP shifts
   LSPECTRAL =   T    use spectral functions                   
   LSPECTRALGW=   F   use spectral functions to calculate int dz G(w-z) W(z) (more accurate)
   LSINGLES  =   F   calculate the singles contribution to the correlation energy
   LFERMIGW  =   F   update Fermi-energy in the Greens function

   ODDONLYGW =   F    avoid all even points for polarizability 
   EVENONLYGW=   F    avoid all odd  points for polarizability 
   NKREDLFX  =   1   NKREDLFY  =   1   NKREDLFZ  =   1

   TELESCOPE =   0   use telescope k-point sampling
   TAUPAR    =   1   number of TAU groups used in imaginary time calculation
   OMEGAPAR  =  -1   number of OMEGA groups used in imaginary frequency calculation
   MAXITERFT   =  30    max iterations in remez



--------------------------------------------------------------------------------------------------------


 Static calculation
 charge density and potential will be updated during run
 non-spin polarized calculation
 Variant of blocked Davidson
 Davidson routine will perform the subspace rotation
 perform sub-space diagonalisation
    after iterative eigenvector-optimisation
 Kerker-like  mixing scheme
 using additional bands          568
 reciprocal scheme for non local part
 use partial core corrections
 calculate Harris-corrections to forces 
   (improved forces if not selfconsistent)
 use gradient corrections 
 use of overlap-Matrix (Vanderbilt PP)
 Gauss-broadening in eV      SIGMA  =   0.01


--------------------------------------------------------------------------------------------------------


  energy-cutoff  :      300.00
  volume of cell :      388.50
      direct lattice vectors                 reciprocal lattice vectors
     5.782400000  0.000000000  0.000000000     0.172938572  0.000000000  0.000000000
     0.000000000  5.782400000  0.000000000     0.000000000  0.172938572  0.000000000
     0.000000000  0.000000000 11.619200000     0.000000000  0.000000000  0.086064445

  length of vectors
     5.782400000  5.782400000 11.619200000     0.172938572  0.172938572  0.086064445


 
 old parameters found on file WAVECAR:
  energy-cutoff  :      300.00
  volume of cell :      388.50
      direct lattice vectors                 reciprocal lattice vectors
     5.782400000  0.000000000  0.000000000     0.172938572  0.000000000  0.000000000
     0.000000000  5.782400000  0.000000000     0.000000000  0.172938572  0.000000000
     0.000000000  0.000000000 11.619200000     0.000000000  0.000000000  0.086064445

  length of vectors

 
 k-points in units of 2pi/SCALE and weight: KPOINTS                                 
   0.00000000  0.00000000  0.00000000       0.002
   0.01729386  0.00000000  0.00000000       0.008
   0.03458771  0.00000000  0.00000000       0.008
   0.05188157  0.00000000  0.00000000       0.008
   0.06917543  0.00000000  0.00000000       0.008
   0.08646929  0.00000000  0.00000000       0.004
   0.01729386  0.01729386  0.00000000       0.008
   0.03458771  0.01729386  0.00000000       0.016
   0.05188157  0.01729386  0.00000000       0.016
   0.06917543  0.01729386  0.00000000       0.016
   0.08646929  0.01729386  0.00000000       0.008
   0.03458771  0.03458771  0.00000000       0.008
   0.05188157  0.03458771  0.00000000       0.016
   0.06917543  0.03458771  0.00000000       0.016
   0.08646929  0.03458771  0.00000000       0.008
   0.05188157  0.05188157  0.00000000       0.008
   0.06917543  0.05188157  0.00000000       0.016
   0.08646929  0.05188157  0.00000000       0.008
   0.06917543  0.06917543  0.00000000       0.008
   0.08646929  0.06917543  0.00000000       0.008
   0.08646929  0.08646929  0.00000000       0.002
   0.00000000  0.00000000  0.01721289       0.004
   0.01729386  0.00000000  0.01721289       0.016
   0.03458771  0.00000000  0.01721289       0.016
   0.05188157  0.00000000  0.01721289       0.016
   0.06917543  0.00000000  0.01721289       0.016
   0.08646929  0.00000000  0.01721289       0.008
   0.01729386  0.01729386  0.01721289       0.016
   0.03458771  0.01729386  0.01721289       0.032
   0.05188157  0.01729386  0.01721289       0.032
   0.06917543  0.01729386  0.01721289       0.032
   0.08646929  0.01729386  0.01721289       0.016
   0.03458771  0.03458771  0.01721289       0.016
   0.05188157  0.03458771  0.01721289       0.032
   0.06917543  0.03458771  0.01721289       0.032
   0.08646929  0.03458771  0.01721289       0.016
   0.05188157  0.05188157  0.01721289       0.016
   0.06917543  0.05188157  0.01721289       0.032
   0.08646929  0.05188157  0.01721289       0.016
   0.06917543  0.06917543  0.01721289       0.016
   0.08646929  0.06917543  0.01721289       0.016
   0.08646929  0.08646929  0.01721289       0.004
   0.00000000  0.00000000  0.03442578       0.004
   0.01729386  0.00000000  0.03442578       0.016
   0.03458771  0.00000000  0.03442578       0.016
   0.05188157  0.00000000  0.03442578       0.016
   0.06917543  0.00000000  0.03442578       0.016
   0.08646929  0.00000000  0.03442578       0.008
   0.01729386  0.01729386  0.03442578       0.016
   0.03458771  0.01729386  0.03442578       0.032
   0.05188157  0.01729386  0.03442578       0.032
   0.06917543  0.01729386  0.03442578       0.032
   0.08646929  0.01729386  0.03442578       0.016
   0.03458771  0.03458771  0.03442578       0.016
   0.05188157  0.03458771  0.03442578       0.032
   0.06917543  0.03458771  0.03442578       0.032
   0.08646929  0.03458771  0.03442578       0.016
   0.05188157  0.05188157  0.03442578       0.016
   0.06917543  0.05188157  0.03442578       0.032
   0.08646929  0.05188157  0.03442578       0.016
   0.06917543  0.06917543  0.03442578       0.016
   0.08646929  0.06917543  0.03442578       0.016
   0.08646929  0.08646929  0.03442578       0.004
 
 k-points in reciprocal lattice and weights: KPOINTS                                 
   0.00000000  0.00000000  0.00000000       0.002
   0.10000000  0.00000000  0.00000000       0.008
   0.20000000  0.00000000  0.00000000       0.008
   0.30000000  0.00000000  0.00000000       0.008
   0.40000000  0.00000000  0.00000000       0.008
   0.50000000  0.00000000  0.00000000       0.004
   0.10000000  0.10000000  0.00000000       0.008
   0.20000000  0.10000000  0.00000000       0.016
   0.30000000  0.10000000  0.00000000       0.016
   0.40000000  0.10000000  0.00000000       0.016
   0.50000000  0.10000000  0.00000000       0.008
   0.20000000  0.20000000  0.00000000       0.008
   0.30000000  0.20000000  0.00000000       0.016
   0.40000000  0.20000000  0.00000000       0.016
   0.50000000  0.20000000  0.00000000       0.008
   0.30000000  0.30000000  0.00000000       0.008
   0.40000000  0.30000000  0.00000000       0.016
   0.50000000  0.30000000  0.00000000       0.008
   0.40000000  0.40000000  0.00000000       0.008
   0.50000000  0.40000000  0.00000000       0.008
   0.50000000  0.50000000  0.00000000       0.002
   0.00000000  0.00000000  0.20000000       0.004
   0.10000000  0.00000000  0.20000000       0.016
   0.20000000  0.00000000  0.20000000       0.016
   0.30000000  0.00000000  0.20000000       0.016
   0.40000000  0.00000000  0.20000000       0.016
   0.50000000  0.00000000  0.20000000       0.008
   0.10000000  0.10000000  0.20000000       0.016
   0.20000000  0.10000000  0.20000000       0.032
   0.30000000  0.10000000  0.20000000       0.032
   0.40000000  0.10000000  0.20000000       0.032
   0.50000000  0.10000000  0.20000000       0.016
   0.20000000  0.20000000  0.20000000       0.016
   0.30000000  0.20000000  0.20000000       0.032
   0.40000000  0.20000000  0.20000000       0.032
   0.50000000  0.20000000  0.20000000       0.016
   0.30000000  0.30000000  0.20000000       0.016
   0.40000000  0.30000000  0.20000000       0.032
   0.50000000  0.30000000  0.20000000       0.016
   0.40000000  0.40000000  0.20000000       0.016
   0.50000000  0.40000000  0.20000000       0.016
   0.50000000  0.50000000  0.20000000       0.004
   0.00000000  0.00000000  0.40000000       0.004
   0.10000000  0.00000000  0.40000000       0.016
   0.20000000  0.00000000  0.40000000       0.016
   0.30000000  0.00000000  0.40000000       0.016
   0.40000000  0.00000000  0.40000000       0.016
   0.50000000  0.00000000  0.40000000       0.008
   0.10000000  0.10000000  0.40000000       0.016
   0.20000000  0.10000000  0.40000000       0.032
   0.30000000  0.10000000  0.40000000       0.032
   0.40000000  0.10000000  0.40000000       0.032
   0.50000000  0.10000000  0.40000000       0.016
   0.20000000  0.20000000  0.40000000       0.016
   0.30000000  0.20000000  0.40000000       0.032
   0.40000000  0.20000000  0.40000000       0.032
   0.50000000  0.20000000  0.40000000       0.016
   0.30000000  0.30000000  0.40000000       0.016
   0.40000000  0.30000000  0.40000000       0.032
   0.50000000  0.30000000  0.40000000       0.016
   0.40000000  0.40000000  0.40000000       0.016
   0.50000000  0.40000000  0.40000000       0.016
   0.50000000  0.50000000  0.40000000       0.004
 
 position of ions in fractional coordinates (direct lattice) 
   0.00000000  0.50000000  0.25000000
   0.00000000  0.00000000  0.00000000
   0.50000000  0.00000000  0.75000000
   0.50000000  0.50000000  0.50000000
   0.00000000  0.50000000  0.75000000
   0.00000000  0.00000000  0.50000000
   0.50000000  0.00000000  0.25000000
   0.50000000  0.50000000  0.00000000
   0.75000000  0.26500000  0.37500000
   0.25000000  0.76500000  0.87500000
   0.25000000  0.73500000  0.37500000
   0.75000000  0.23500000  0.87500000
   0.23500000  0.25000000  0.12500000
   0.76500000  0.75000000  0.12500000
   0.73500000  0.75000000  0.62500000
   0.26500000  0.25000000  0.62500000
 
 position of ions in cartesian coordinates  (Angst):
   0.00000000  2.89120000  2.90480000
   0.00000000  0.00000000  0.00000000
   2.89120000  0.00000000  8.71440000
   2.89120000  2.89120000  5.80960000
   0.00000000  2.89120000  8.71440000
   0.00000000  0.00000000  5.80960000
   2.89120000  0.00000000  2.90480000
   2.89120000  2.89120000  0.00000000
   4.33680000  1.53233600  4.35720000
   1.44560000  4.42353600 10.16680000
   1.44560000  4.25006400  4.35720000
   4.33680000  1.35886400 10.16680000
   1.35886400  1.44560000  1.45240000
   4.42353600  4.33680000  1.45240000
   4.25006400  4.33680000  7.26200000
   1.53233600  1.44560000  7.26200000
 


--------------------------------------------------------------------------------------------------------


 k-point  1 :   0.0000 0.0000 0.0000  plane waves:    4581
 k-point  2 :   0.1000 0.0000 0.0000  plane waves:    4599
 k-point  3 :   0.2000 0.0000 0.0000  plane waves:    4576
 k-point  4 :   0.3000 0.0000 0.0000  plane waves:    4594
 k-point  5 :   0.4000 0.0000 0.0000  plane waves:    4578
 k-point  6 :   0.5000 0.0000 0.0000  plane waves:    4576
 k-point  7 :   0.1000 0.1000 0.0000  plane waves:    4589
 k-point  8 :   0.2000 0.1000 0.0000  plane waves:    4571
 k-point  9 :   0.3000 0.1000 0.0000  plane waves:    4581
 k-point 10 :   0.4000 0.1000 0.0000  plane waves:    4589
 k-point 11 :   0.5000 0.1000 0.0000  plane waves:    4594
 k-point 12 :   0.2000 0.2000 0.0000  plane waves:    4593
 k-point 13 :   0.3000 0.2000 0.0000  plane waves:    4584
 k-point 14 :   0.4000 0.2000 0.0000  plane waves:    4585
 k-point 15 :   0.5000 0.2000 0.0000  plane waves:    4594
 k-point 16 :   0.3000 0.3000 0.0000  plane waves:    4578
 k-point 17 :   0.4000 0.3000 0.0000  plane waves:    4599
 k-point 18 :   0.5000 0.3000 0.0000  plane waves:    4594
 k-point 19 :   0.4000 0.4000 0.0000  plane waves:    4584
 k-point 20 :   0.5000 0.4000 0.0000  plane waves:    4584
 k-point 21 :   0.5000 0.5000 0.0000  plane waves:    4608
 k-point 22 :   0.0000 0.0000 0.2000  plane waves:    4589
 k-point 23 :   0.1000 0.0000 0.2000  plane waves:    4587
 k-point 24 :   0.2000 0.0000 0.2000  plane waves:    4588
 k-point 25 :   0.3000 0.0000 0.2000  plane waves:    4589
 k-point 26 :   0.4000 0.0000 0.2000  plane waves:    4578
 k-point 27 :   0.5000 0.0000 0.2000  plane waves:    4580
 k-point 28 :   0.1000 0.1000 0.2000  plane waves:    4573
 k-point 29 :   0.2000 0.1000 0.2000  plane waves:    4583
 k-point 30 :   0.3000 0.1000 0.2000  plane waves:    4587
 k-point 31 :   0.4000 0.1000 0.2000  plane waves:    4575
 k-point 32 :   0.5000 0.1000 0.2000  plane waves:    4582
 k-point 33 :   0.2000 0.2000 0.2000  plane waves:    4589
 k-point 34 :   0.3000 0.2000 0.2000  plane waves:    4580
 k-point 35 :   0.4000 0.2000 0.2000  plane waves:    4579
 k-point 36 :   0.5000 0.2000 0.2000  plane waves:    4582
 k-point 37 :   0.3000 0.3000 0.2000  plane waves:    4587
 k-point 38 :   0.4000 0.3000 0.2000  plane waves:    4597
 k-point 39 :   0.5000 0.3000 0.2000  plane waves:    4598
 k-point 40 :   0.4000 0.4000 0.2000  plane waves:    4598
 k-point 41 :   0.5000 0.4000 0.2000  plane waves:    4604
 k-point 42 :   0.5000 0.5000 0.2000  plane waves:    4580
 k-point 43 :   0.0000 0.0000 0.4000  plane waves:    4589
 k-point 44 :   0.1000 0.0000 0.4000  plane waves:    4576
 k-point 45 :   0.2000 0.0000 0.4000  plane waves:    4588
 k-point 46 :   0.3000 0.0000 0.4000  plane waves:    4573
 k-point 47 :   0.4000 0.0000 0.4000  plane waves:    4576
 k-point 48 :   0.5000 0.0000 0.4000  plane waves:    4578
 k-point 49 :   0.1000 0.1000 0.4000  plane waves:    4585
 k-point 50 :   0.2000 0.1000 0.4000  plane waves:    4586
 k-point 51 :   0.3000 0.1000 0.4000  plane waves:    4574
 k-point 52 :   0.4000 0.1000 0.4000  plane waves:    4573
 k-point 53 :   0.5000 0.1000 0.4000  plane waves:    4570
 k-point 54 :   0.2000 0.2000 0.4000  plane waves:    4569
 k-point 55 :   0.3000 0.2000 0.4000  plane waves:    4575
 k-point 56 :   0.4000 0.2000 0.4000  plane waves:    4584
 k-point 57 :   0.5000 0.2000 0.4000  plane waves:    4576
 k-point 58 :   0.3000 0.3000 0.4000  plane waves:    4579
 k-point 59 :   0.4000 0.3000 0.4000  plane waves:    4596
 k-point 60 :   0.5000 0.3000 0.4000  plane waves:    4596
 k-point 61 :   0.4000 0.4000 0.4000  plane waves:    4602
 k-point 62 :   0.5000 0.4000 0.4000  plane waves:    4610
 k-point 63 :   0.5000 0.5000 0.4000  plane waves:    4608

 maximum and minimum number of plane-waves per node :      4610     4569

 maximum number of plane-waves:      4610
 maximum index in each direction: 
   IXMAX=    8   IYMAX=    8   IZMAX=   16
   IXMIN=   -8   IYMIN=   -8   IZMIN=  -16

 NGX is ok and might be reduce to  34
 NGY is ok and might be reduce to  34
 NGZ is ok and might be reduce to  66

 serial   3D FFT for wavefunctions
 parallel 3D FFT for charge:
    minimum data exchange during FFTs selected (reduces bandwidth)


 FFT grid for exact exchange (Hartree Fock) 
  NGX = 28; NGY = 28; NGZ = 50

 
 Radii for the augmentation spheres in the non-local exchange
 for species   1 augmentation radius   1.005 (default was   1.005)
 error exchange integrals (PW-AE in eV) (mean, max) 0.639 7.048 density error[0,qmax] 0.0091
 for species   2 augmentation radius   1.077 (default was   1.077)
 error exchange integrals (PW-AE in eV) (mean, max) 0.539 4.421 density error[0,qmax] 0.0132
 for species   3 augmentation radius   1.081 (default was   1.081)
 error exchange integrals (PW-AE in eV) (mean, max) 0.082 0.948 density error[0,qmax] 0.0096
 Maximum index for augmentation-charges in exchange          534
  SETUP_FOCK is finished

 total amount of memory used by VASP on root node   219833. kBytes
========================================================================

   base      :      30000. kBytes
   nonl-proj :     128349. kBytes
   fftplans  :       2537. kBytes
   grid      :       4953. kBytes
   one-center:        248. kBytes
   HF        :        388. kBytes
   nonlr-proj:       3684. kBytes
   wavefun   :      49674. kBytes
 
     INWAV:  cpu time   21.4677: real time   21.5154
 charge density for first step will be calculated from the start-wavefunctions


--------------------------------------------------------------------------------------------------------


 Maximum index for augmentation-charges         3586 (set IRDMAX)


--------------------------------------------------------------------------------------------------------


 initial charge from wavefunction
 FEWALD executed in parallel
    FEWALD:  cpu time    0.0010: real time    0.0003

 The Fermi energy was updated, please check that it is located mid-gap
 values below the HOMO (VB) or above the LUMO (CB) will cause erroneous energies
 E-fermi :   3.6731

 Response functions by sum over occupied states:
 ===============================================
   NOMEGA  =   128    number of frequencies
   NOMEGAR =   128    number of frequencies along real axis
   OMEGAMAX=  12.89   maximum frequency
   OMEGAMIN=   0.54   minimum frequency
[...]
    120      15.1765      15.0268      -8.3921      -8.1950      -3.4004       0.7603       0.0000      -0.2203
    121      16.3502      16.2641      -8.7564      -8.6431      -3.5057       0.7604       0.0000      -0.3169
    122      16.3502      16.2641      -8.7564      -8.6431      -3.5057       0.7604       0.0000      -0.3169
    123      16.3502      16.2641      -8.7564      -8.6431      -3.5057       0.7604       0.0000      -0.3169
    124      16.3502      16.2641      -8.7564      -8.6431      -3.5057       0.7604       0.0000      -0.3169
    125      16.3955      16.2763      -8.7098      -8.5528      -3.4896       0.7589       0.0000      -0.3155
    126      16.3955      16.2763      -8.7098      -8.5528      -3.4896       0.7589       0.0000      -0.3155
    127      16.3955      16.2763      -8.7098      -8.5528      -3.4896       0.7589       0.0000      -0.3155
    128      16.3955      16.2763      -8.7098      -8.5528      -3.4896       0.7589       0.0000      -0.3155
    129      17.2690      17.2491      -9.6592      -9.6331      -4.2364       0.7618       0.0000      -0.4411
    130      17.2690      17.2491      -9.6592      -9.6331      -4.2364       0.7618       0.0000      -0.4411
    131      17.2690      17.2491      -9.6592      -9.6331      -4.2364       0.7618       0.0000      -0.4411
    132      17.2690      17.2491      -9.6592      -9.6331      -4.2364       0.7618       0.0000      -0.4411
    133      17.6744      17.6117      -9.6150      -9.5326      -4.2135       0.7615       0.0000      -0.4413
    134      17.6744      17.6117      -9.6150      -9.5326      -4.2135       0.7615       0.0000      -0.4413
    135      17.6744      17.6117      -9.6150      -9.5326      -4.2135       0.7615       0.0000      -0.4413
    136      17.6744      17.6117      -9.6150      -9.5326      -4.2135       0.7615       0.0000      -0.4413
    137      19.5610      19.4162      -9.0852      -8.8979      -3.3872       0.7737       0.0000      -0.6298
    138      19.5610      19.4162      -9.0852      -8.8979      -3.3872       0.7737       0.0000      -0.6298
    139      19.5610      19.4162      -9.0852      -8.8979      -3.3872       0.7737       0.0000      -0.6298
    140      19.5610      19.4162      -9.0852      -8.8979      -3.3872       0.7737       0.0000      -0.6298
    141      19.6986      19.5232      -9.2118      -8.9848      -3.5288       0.7727       0.0000      -0.6224
    142      19.6986      19.5232      -9.2118      -8.9848      -3.5288       0.7727       0.0000      -0.6224
    143      19.6986      19.5232      -9.2118      -8.9848      -3.5288       0.7727       0.0000      -0.6224
    144      19.6986      19.5232      -9.2118      -8.9848      -3.5288       0.7727       0.0000      -0.6224
    145      20.4680      20.2964      -8.6959      -8.4733      -3.0175       0.7709       0.0000      -0.6221
    146      20.4680      20.2964      -8.6959      -8.4733      -3.0175       0.7709       0.0000      -0.6221
    147      20.4680      20.2964      -8.6959      -8.4733      -3.0175       0.7709       0.0000      -0.6221
    148      20.4680      20.2964      -8.6959      -8.4733      -3.0175       0.7709       0.0000      -0.6221
    149      21.0149      20.8527      -9.1963      -8.9865      -3.3696       0.7738       0.0000      -0.7287
    150      21.0149      20.8527      -9.1963      -8.9865      -3.3696       0.7738       0.0000      -0.7287
    151      21.0149      20.8527      -9.1963      -8.9865      -3.3696       0.7738       0.0000      -0.7287
    152      21.0149      20.8527      -9.1963      -8.9865      -3.3696       0.7738       0.0000      -0.7287
    153      21.1255      20.9556      -8.9078      -8.6892      -3.1569       0.7771       0.0000      -0.7406
    154      21.1255      20.9556      -8.9078      -8.6892      -3.1569       0.7771       0.0000      -0.7406
    155      21.1255      20.9556      -8.9078      -8.6892      -3.1569       0.7771       0.0000      -0.7406
    156      21.1255      20.9556      -8.9078      -8.6892      -3.1569       0.7771       0.0000      -0.7406
    157      22.2985      22.0843      -8.3767      -8.0989      -2.6409       0.7708       0.0000      -0.7404
    158      22.2985      22.0843      -8.3767      -8.0989      -2.6409       0.7708       0.0000      -0.7404
    159      22.2985      22.0843      -8.3767      -8.0989      -2.6409       0.7708       0.0000      -0.7404
    160      22.2985      22.0843      -8.3767      -8.0989      -2.6409       0.7708       0.0000      -0.7404
    161      23.5914      23.3993      -8.4860      -8.2374      -2.6149       0.7728       0.0000      -0.8427
    162      23.5914      23.3993      -8.4860      -8.2374      -2.6149       0.7728       0.0000      -0.8427
    163      23.5914      23.3993      -8.4860      -8.2374      -2.6149       0.7728       0.0000      -0.8427
    164      23.5914      23.3993      -8.4860      -8.2374      -2.6149       0.7728       0.0000      -0.8427
    165      24.1049      23.9173      -8.4616      -8.2192      -2.5620       0.7737       0.0000      -0.8729
    166      24.1049      23.9173      -8.4616      -8.2192      -2.5620       0.7737       0.0000      -0.8729
    167      24.1049      23.9173      -8.4616      -8.2192      -2.5620       0.7737       0.0000      -0.8729
    168      24.1049      23.9173      -8.4616      -8.2192      -2.5620       0.7737       0.0000      -0.8729
    169      25.4176      25.2016      -8.3644      -8.0857      -2.4149       0.7753       0.0000      -0.9378
    170      25.4176      25.2016      -8.3644      -8.0857      -2.4149       0.7753       0.0000      -0.9378
    171      25.4176      25.2016      -8.3644      -8.0857      -2.4149       0.7753       0.0000      -0.9378
    172      25.4176      25.2016      -8.3644      -8.0857      -2.4149       0.7753       0.0000      -0.9378
    173      25.5623      25.3609      -8.3268      -8.0673      -2.3755       0.7760       0.0000      -0.9472
    174      25.5623      25.3609      -8.3268      -8.0673      -2.3755       0.7760       0.0000      -0.9472
    175      25.5623      25.3609      -8.3268      -8.0673      -2.3755       0.7760       0.0000      -0.9472
    176      25.5623      25.3609      -8.3268      -8.0673      -2.3755       0.7760       0.0000      -0.9472
    177      26.5393      26.4017      -9.0784      -8.9025      -2.8579       0.7827       0.0000      -1.1695
    178      26.5393      26.4017      -9.0784      -8.9025      -2.8579       0.7827       0.0000      -1.1695
    179      26.5393      26.4017      -9.0784      -8.9025      -2.8579       0.7827       0.0000      -1.1695
    180      26.5393      26.4017      -9.0784      -8.9025      -2.8579       0.7827       0.0000      -1.1695
    181      27.1732      26.9601      -8.2329      -7.9611      -2.2391       0.7842       0.0000      -1.1344
    182      27.1732      26.9601      -8.2329      -7.9611      -2.2391       0.7842       0.0000      -1.1344
    183      27.1732      26.9601      -8.2329      -7.9611      -2.2391       0.7842       0.0000      -1.1344
    184      27.1732      26.9601      -8.2329      -7.9611      -2.2391       0.7842       0.0000      -1.1344
    185      27.2636      27.0131      -8.4206      -8.1013      -2.3451       0.7844       0.0000      -1.1627
    186      27.2636      27.0131      -8.4206      -8.1013      -2.3451       0.7844       0.0000      -1.1627
    187      27.2636      27.0131      -8.4206      -8.1013      -2.3451       0.7844       0.0000      -1.1627
    188      27.2636      27.0131      -8.4206      -8.1013      -2.3451       0.7844       0.0000      -1.1627
    189      27.5501      27.3030      -7.8765      -7.5610      -2.0043       0.7834       0.0000      -1.0900
    190      27.5501      27.3030      -7.8765      -7.5610      -2.0043       0.7834       0.0000      -1.0900
    191      27.5501      27.3030      -7.8765      -7.5610      -2.0043       0.7834       0.0000      -1.0900
    192      27.5501      27.3030      -7.8765      -7.5610      -2.0043       0.7834       0.0000      -1.0900
    193      28.0381      27.9753      -8.6175      -8.5378      -2.4988       0.7886       0.0000      -1.2265
    194      28.0381      27.9753      -8.6175      -8.5378      -2.4988       0.7886       0.0000      -1.2265
    195      28.0381      27.9753      -8.6175      -8.5378      -2.4988       0.7886       0.0000      -1.2265
    196      28.0381      27.9753      -8.6175      -8.5378      -2.4988       0.7886       0.0000      -1.2265
    197      28.4763      28.2943      -8.4849      -8.2535      -2.2964       0.7867       0.0000      -1.2292
    198      28.4763      28.2943      -8.4849      -8.2535      -2.2964       0.7867       0.0000      -1.2292
    199      28.4763      28.2943      -8.4849      -8.2535      -2.2964       0.7867       0.0000      -1.2292
    200      28.4763      28.2943      -8.4849      -8.2535      -2.2964       0.7867       0.0000      -1.2292
    201      28.7171      28.5539      -8.2055      -7.9991      -2.2082       0.7907       0.0000      -1.2027
    202      28.7171      28.5539      -8.2055      -7.9991      -2.2082       0.7907       0.0000      -1.2027
    203      28.7171      28.5539      -8.2055      -7.9991      -2.2082       0.7907       0.0000      -1.2027
    204      28.7171      28.5539      -8.2055      -7.9991      -2.2082       0.7907       0.0000      -1.2027
    205      29.0181      28.8263      -8.5670      -8.3274      -2.4236       0.8008       0.0000      -1.3461
    206      29.0181      28.8263      -8.5670      -8.3274      -2.4236       0.8008       0.0000      -1.3461
    207      29.0181      28.8263      -8.5670      -8.3274      -2.4236       0.8008       0.0000      -1.3461
    208      29.0181      28.8263      -8.5670      -8.3274      -2.4236       0.8008       0.0000      -1.3461
    209      29.1727      29.0687      -8.6749      -8.5447      -2.4661       0.7986       0.0000      -1.3307
    210      29.1727      29.0687      -8.6749      -8.5447      -2.4661       0.7986       0.0000      -1.3307
    211      29.1727      29.0687      -8.6749      -8.5447      -2.4661       0.7986       0.0000      -1.3307
    212      29.1727      29.0687      -8.6749      -8.5447      -2.4661       0.7986       0.0000      -1.3307
    213      29.4897      29.2934      -8.1315      -7.8853      -2.1478       0.7971       0.0000      -1.2846
    214      29.4897      29.2934      -8.1315      -7.8853      -2.1478       0.7971       0.0000      -1.2846
    215      29.4897      29.2934      -8.1315      -7.8853      -2.1478       0.7971       0.0000      -1.2846
    216      29.4897      29.2934      -8.1315      -7.8853      -2.1478       0.7971       0.0000      -1.2846
    217      30.2037      30.1108      -8.9750      -8.8596      -2.7107       0.8048       0.0000      -1.5067
    218      30.2037      30.1108      -8.9750      -8.8596      -2.7107       0.8048       0.0000      -1.5067
    219      30.2037      30.1108      -8.9750      -8.8596      -2.7107       0.8048       0.0000      -1.5067
    220      30.2037      30.1108      -8.9750      -8.8596      -2.7107       0.8048       0.0000      -1.5067
    221      30.8543      30.7344      -8.7905      -8.6419      -2.5076       0.8061       0.0000      -1.5257
    222      30.8543      30.7344      -8.7905      -8.6419      -2.5076       0.8061       0.0000      -1.5257
    223      30.8543      30.7344      -8.7905      -8.6419      -2.5076       0.8061       0.0000      -1.5257
    224      30.8543      30.7344      -8.7905      -8.6419      -2.5076       0.8061       0.0000      -1.5257
    225      31.6529      31.8230      -8.9332      -9.1420      -2.5882       0.8143       0.0000      -1.5754
    226      31.6529      31.8230      -8.9332      -9.1420      -2.5882       0.8143       0.0000      -1.5754
    227      31.6529      31.8230      -8.9332      -9.1420      -2.5882       0.8143       0.0000      -1.5754
    228      31.6529      31.8230      -8.9332      -9.1420      -2.5882       0.8143       0.0000      -1.5754
    229      31.7944      31.9518      -9.1244      -9.3158      -2.6984       0.8223       0.0000      -1.6879
    230      31.7944      31.9518      -9.1244      -9.3158      -2.6984       0.8223       0.0000      -1.6879
    231      31.7944      31.9518      -9.1244      -9.3158      -2.6984       0.8223       0.0000      -1.6879
    232      31.7944      31.9518      -9.1244      -9.3158      -2.6984       0.8223       0.0000      -1.6879
    233      32.5903      32.6656      -8.9303      -9.0214      -2.5090       0.8265       0.0000      -1.7813
    234      32.5903      32.6656      -8.9303      -9.0214      -2.5090       0.8265       0.0000      -1.7813
    235      32.5903      32.6656      -8.9303      -9.0214      -2.5090       0.8265       0.0000      -1.7813
    236      32.5903      32.6656      -8.9303      -9.0214      -2.5090       0.8265       0.0000      -1.7813
    237      32.8022      32.8111      -8.1353      -8.1463      -1.9943       0.8049       0.0000      -1.5363
    238      32.8022      32.8111      -8.1353      -8.1463      -1.9943       0.8049       0.0000      -1.5363
    239      32.8022      32.8111      -8.1353      -8.1463      -1.9943       0.8049       0.0000      -1.5363
    240      32.8022      32.8111      -8.1353      -8.1463      -1.9943       0.8049       0.0000      -1.5363
    241      33.1053      33.0088      -7.8749      -7.7551      -1.8826       0.8062       0.0000      -1.5090
    242      33.1053      33.0088      -7.8749      -7.7551      -1.8826       0.8062       0.0000      -1.5090
    243      33.1053      33.0088      -7.8749      -7.7551      -1.8826       0.8062       0.0000      -1.5090
    244      33.1053      33.0088      -7.8749      -7.7551      -1.8826       0.8062       0.0000      -1.5090
    245      33.4453      33.4244      -8.1611      -8.1353      -2.0587       0.8107       0.0000      -1.6233
    246      33.4453      33.4244      -8.1611      -8.1353      -2.0587       0.8107       0.0000      -1.6233
    247      33.4453      33.4244      -8.1611      -8.1353      -2.0587       0.8107       0.0000      -1.6233
    248      33.4453      33.4244      -8.1611      -8.1353      -2.0587       0.8107       0.0000      -1.6233
    249      33.7355      33.7260      -8.2151      -8.2033      -2.0025       0.8057       0.0000      -1.6280
    250      33.7355      33.7260      -8.2151      -8.2033      -2.0025       0.8057       0.0000      -1.6280
    251      33.7355      33.7260      -8.2151      -8.2033      -2.0025       0.8057       0.0000      -1.6280
    252      33.7355      33.7260      -8.2151      -8.2033      -2.0025       0.8057       0.0000      -1.6280
    253      34.4085      34.4658      -8.2410      -8.3105      -2.1283       0.8249       0.0000      -1.7401
    254      34.4085      34.4658      -8.2410      -8.3105      -2.1283       0.8249       0.0000      -1.7401
    255      34.4085      34.4658      -8.2410      -8.3105      -2.1283       0.8249       0.0000      -1.7401
    256      34.4085      34.4658      -8.2410      -8.3105      -2.1283       0.8249       0.0000      -1.7401


--------------------------------------------------------------------------------------------------------


  QP_SHIFT:  cpu time  119.4308: real time  118.7657
    GWLOOP:  cpu time 7822.9007: real time 2720.2082
  LATTYP: Found a simple tetragonal cell.
 ALAT       =     5.7824000000
 C/A-ratio  =     2.0094078583
  
  Lattice vectors:
  
 A1 = (   5.7824000000,   0.0000000000,   0.0000000000)
 A2 = (   0.0000000000,   5.7824000000,   0.0000000000)
 A3 = (   0.0000000000,   0.0000000000,  11.6192000000)


Analysis of symmetry for initial positions (statically):
=====================================================================
 Subroutine PRICEL returns following result:
 
  LATTYP: Found a body centered tetragonal cell.
 ALAT       =     5.7824000000
 C/A-ratio  =     2.0094078583
  
  Lattice vectors:
  
 A1 = (   2.8912000000,  -2.8912000000,   5.8096000000)
 A2 = (  -2.8912000000,   2.8912000000,   5.8096000000)
 A3 = (  -2.8912000000,  -2.8912000000,  -5.8096000000)
 
   2 primitive cells build up your supercell.
 

 Routine SETGRP: Setting up the symmetry group for a 
 simple tetragonal supercell.


 Subroutine GETGRP returns: Found  8 space group operations
 (whereof  4 operations were pure point group operations)
 out of a pool of 16 trial point group operations.


The static configuration has the point symmetry S_4 .
 The point group associated with its full space group is D_2d.


Analysis of symmetry for dynamics (positions and initial velocities):
=====================================================================
 Subroutine PRICEL returns following result:
 
  LATTYP: Found a body centered tetragonal cell.
 ALAT       =     5.7824000000
 C/A-ratio  =     2.0094078583
  
  Lattice vectors:
  
 A1 = (   2.8912000000,  -2.8912000000,   5.8096000000)
 A2 = (  -2.8912000000,   2.8912000000,   5.8096000000)
 A3 = (  -2.8912000000,  -2.8912000000,  -5.8096000000)
 
   2 primitive cells build up your supercell.
 

 Routine SETGRP: Setting up the symmetry group for a 
 simple tetragonal supercell.


 Subroutine GETGRP returns: Found  8 space group operations
 (whereof  4 operations were pure point group operations)
 out of a pool of 16 trial point group operations.


The dynamic configuration has the point symmetry S_4 .
 The point group associated with its full space group is D_2d.


 Subroutine INISYM returns: Found  8 space group operations
 (whereof  4 operations are pure point group operations),
 and found     2 'primitive' translations

 writing wavefunctions
   RESPFUN:  cpu time  314.4682: real time  150.5623
    4ORBIT:  cpu time    0.0000: real time    0.0000
 


 total charge     
 
# of ion     s       p       d       tot
----------------------------------------
  1        0.318   0.298   9.381   9.997
  2        0.318   0.298   9.380   9.997
  3        0.318   0.298   9.381   9.997
  4        0.318   0.298   9.380   9.997
  5        0.814   0.725   9.931  11.470
  6        0.814   0.725   9.931  11.470
  7        0.814   0.725   9.931  11.470
  8        0.814   0.725   9.931  11.470
  9        1.446   2.431   0.038   3.916
 10        1.446   2.431   0.038   3.916
 11        1.446   2.432   0.039   3.916
 12        1.446   2.432   0.039   3.916
 13        1.446   2.431   0.039   3.916
 14        1.446   2.431   0.039   3.915
 15        1.446   2.431   0.039   3.916
 16        1.446   2.431   0.039   3.915
------------------------------------------------
tot       16.094  23.544  77.556 117.194
 

 total amount of memory used by VASP on root node   219833. kBytes
========================================================================

   base      :      30000. kBytes
   nonl-proj :     128349. kBytes
   fftplans  :       2537. kBytes
   grid      :       4953. kBytes
   one-center:        248. kBytes
   HF        :        388. kBytes
   nonlr-proj:       3684. kBytes
   wavefun   :      49674. kBytes
   2eintegral:          0. kBytes
   response  :          0. kBytes
 
  
  
 General timing and accounting informations for this job:
 ========================================================
  
                  Total CPU time used (sec):     8207.593
                            User time (sec):     7957.878
                          System time (sec):      249.715
                         Elapsed time (sec):     2929.695
  
                   Maximum memory used (kb):     3060024.
                   Average memory used (kb):           0.
  
                          Minor page faults:     56529238
                          Major page faults:            1
                 Voluntary context switches:        56921
