 vasp.5.4.1 24Jun15 (build Feb 09 2016 12:33:36) complex                        
  
 executed on            Peregrine date 2017.02.19  14:21:39
 running on  128 total cores
 distrk:  each k-point on   32 cores,    4 groups
 distr:  one band on NCORES_PER_BAND=   8 cores,    4 groups


--------------------------------------------------------------------------------------------------------


 INCAR:
 POTCAR:   PAW_PBE Cu 05Jan2001                   
 POTCAR:   PAW_PBE In_d 06Sep2000                 
 POTCAR:   PAW_PBE Se 06Sep2000                   

 ----------------------------------------------------------------------------- 
|                                                                             |
|           W    W    AA    RRRRR   N    N  II  N    N   GGGG   !!!           |
|           W    W   A  A   R    R  NN   N  II  NN   N  G    G  !!!           |
|           W    W  A    A  R    R  N N  N  II  N N  N  G       !!!           |
|           W WW W  AAAAAA  RRRRR   N  N N  II  N  N N  G  GGG   !            |
|           WW  WW  A    A  R   R   N   NN  II  N   NN  G    G                |
|           W    W  A    A  R    R  N    N  II  N    N   GGGG   !!!           |
|                                                                             |
|      You have enabled k-point parallelism (KPAR>1).                         |
|      This developmental code was originally  written by Paul Kent at ORNL,  |
|      and carefully double checked in Vienna.                                |
|      GW as well as linear response parallelism added by Martijn Marsman     |
|      and Georg Kresse.                                                      |
|      Carefully verify results versus KPAR=1.                                |
|      Report problems to Paul Kent and Vienna.                               |
|                                                                             |
 ----------------------------------------------------------------------------- 

 POTCAR:   PAW_PBE Cu 05Jan2001                   
   VRHFIN =Cu: d10 p1                                                           
   LEXCH  = PE                                                                  
   EATOM  =  1390.9800 eV,  102.2341 Ry                                         
                                                                                
   TITEL  = PAW_PBE Cu 05Jan2001                                                
   LULTRA =        F    use ultrasoft PP ?                                      
   IUNSCR =        1    unscreen: 0-lin 1-nonlin 2-no                           
   RPACOR =    2.000    partial core radius                                     
   POMASS =   63.546; ZVAL   =   11.000    mass and valenz                      
   RCORE  =    2.300    outmost cutoff radius                                   
   RWIGS  =    2.480; RWIGS  =    1.312    wigner-seitz radius (au A)           
   ENMAX  =  273.214; ENMIN  =  204.910 eV                                      
   RCLOC  =    1.712    cutoff for local pot                                    
   LCOR   =        T    correct aug charges                                     
   LPAW   =        T    paw PP                                                  
   EAUG   =  516.456                                                            
   DEXC   =    -.008                                                            
   RMAX   =    2.789    core radius for proj-oper                               
   RAUG   =    1.300    factor for augmentation sphere                          
   RDEP   =    2.302    radius for radial grids                                 
   QCUT   =   -4.481; QGAM   =    8.962    optimization parameters              
                                                                                
   Description                                                                  
     l     E      TYP  RCUT    TYP  RCUT                                        
     2   .000     23  2.300                                                     
     2   .000     23  2.300                                                     
     0   .000     23  2.300                                                     
     0   .000     23  2.300                                                     
     1  -.200     23  2.300                                                     
     1   .000     23  2.300                                                     
     3   .000      7   .000                                                     
  local pseudopotential read in
  partial core-charges read in
  atomic valenz-charges read in
  non local Contribution for L=           2  read in
    real space projection operators read in
  non local Contribution for L=           2  read in
    real space projection operators read in
  non local Contribution for L=           0  read in
    real space projection operators read in
  non local Contribution for L=           0  read in
    real space projection operators read in
  non local Contribution for L=           1  read in
    real space projection operators read in
  non local Contribution for L=           1  read in
    real space projection operators read in
    PAW grid and wavefunctions read in
 
   number of l-projection  operators is LMAX  =           6
   number of lm-projection operators is LMMAX =          18
 
 POTCAR:   PAW_PBE In_d 06Sep2000                 
   VRHFIN =In: s2p1                                                             
   LEXCH  = PE                                                                  
   EATOM  =  1576.8738 eV,  115.8970 Ry                                         
                                                                                
   TITEL  = PAW_PBE In_d 06Sep2000                                              
   LULTRA =        F    use ultrasoft PP ?                                      
   IUNSCR =        1    unscreen: 0-lin 1-nonlin 2-no                           
   RPACOR =    2.200    partial core radius                                     
   POMASS =  114.820; ZVAL   =   13.000    mass and valenz                      
   RCORE  =    2.500    outmost cutoff radius                                   
   RWIGS  =    3.170; RWIGS  =    1.677    wigner-seitz radius (au A)           
   ENMAX  =  239.218; ENMIN  =  179.413 eV                                      
   ICORE  =        3    local potential                                         
   LCOR   =        T    correct aug charges                                     
   LPAW   =        T    paw PP                                                  
   EAUG   =  449.704                                                            
   DEXC   =    -.003                                                            
   RMAX   =    2.981    core radius for proj-oper                               
   RAUG   =    1.300    factor for augmentation sphere                          
   RDEP   =    2.630    radius for radial grids                                 
   QCUT   =   -4.193; QGAM   =    8.386    optimization parameters              
                                                                                
   Description                                                                  
     l     E      TYP  RCUT    TYP  RCUT                                        
     2   .000     23  2.500                                                     
     2  -.100     23  2.500                                                     
     0   .000     23  2.500                                                     
     0   .000     23  2.500                                                     
     1   .000     23  2.500                                                     
     1   .000     23  2.500                                                     
     3  -.100      7  2.500                                                     
  local pseudopotential read in
  partial core-charges read in
  atomic valenz-charges read in
  non local Contribution for L=           2  read in
    real space projection operators read in
  non local Contribution for L=           2  read in
    real space projection operators read in
  non local Contribution for L=           0  read in
    real space projection operators read in
  non local Contribution for L=           0  read in
    real space projection operators read in
  non local Contribution for L=           1  read in
    real space projection operators read in
  non local Contribution for L=           1  read in
    real space projection operators read in
    PAW grid and wavefunctions read in
 
   number of l-projection  operators is LMAX  =           6
   number of lm-projection operators is LMMAX =          18
 
 POTCAR:   PAW_PBE Se 06Sep2000                   
   VRHFIN =Se: s2p4                                                             
   LEXCH  = PE                                                                  
   EATOM  =   256.9644 eV,   18.8864 Ry                                         
                                                                                
   TITEL  = PAW_PBE Se 06Sep2000                                                
   LULTRA =        F    use ultrasoft PP ?                                      
   IUNSCR =        1    unscreen: 0-lin 1-nonlin 2-no                           
   RPACOR =    1.900    partial core radius                                     
   POMASS =   78.960; ZVAL   =    6.000    mass and valenz                      
   RCORE  =    2.100    outmost cutoff radius                                   
   RWIGS  =    2.200; RWIGS  =    1.164    wigner-seitz radius (au A)           
   ENMAX  =  211.534; ENMIN  =  158.651 eV                                      
   ICORE  =        3    local potential                                         
   LCOR   =        T    correct aug charges                                     
   LPAW   =        T    paw PP                                                  
   EAUG   =  446.842                                                            
   DEXC   =    -.031                                                            
   RMAX   =    3.170    core radius for proj-oper                               
   RAUG   =    1.300    factor for augmentation sphere                          
   RDEP   =    2.177    radius for radial grids                                 
   QCUT   =   -3.943; QGAM   =    7.886    optimization parameters              
                                                                                
   Description                                                                  
     l     E      TYP  RCUT    TYP  RCUT                                        
     0   .000     23  2.100                                                     
     0   .000     23  2.100                                                     
     1   .000     23  2.100                                                     
     1   .000     23  2.100                                                     
     2   .000     23  2.100                                                     
     3  -.100      7  2.100                                                     
  local pseudopotential read in
  partial core-charges read in
  atomic valenz-charges read in
  non local Contribution for L=           0  read in
    real space projection operators read in
  non local Contribution for L=           0  read in
    real space projection operators read in
  non local Contribution for L=           1  read in
    real space projection operators read in
  non local Contribution for L=           1  read in
    real space projection operators read in
  non local Contribution for L=           2  read in
    real space projection operators read in
    PAW grid and wavefunctions read in
 
   number of l-projection  operators is LMAX  =           5
   number of lm-projection operators is LMMAX =          13
 
 PAW_PBE Cu 05Jan2001                   :
 energy of atom  1       EATOM=-1390.9800
 kinetic energy error for atom=    0.0323 (will be added to EATOM!!)
 PAW_PBE In_d 06Sep2000                 :
 energy of atom  2       EATOM=-1576.8738
 kinetic energy error for atom=    0.0380 (will be added to EATOM!!)
 PAW_PBE Se 06Sep2000                   :
 energy of atom  3       EATOM= -256.9644
 kinetic energy error for atom=    0.0040 (will be added to EATOM!!)
 
 
 POSCAR: Cu1-In1-Se2 'I -4 2 d'  #122            
  positions in direct lattice
  No initial velocities read in
 exchange correlation table for  LEXCH =        8
   RHO(1)=    0.500       N(1)  =     2000
   RHO(2)=  100.500       N(2)  =     4000

 VTST: version 3.1, (03/28/14)

 CHAIN: initializing optimizer
 
 OPT: Using VASP Dynamics algorithm
 CHAIN: Read ICHAIN            0
 
 POSCAR: Cu1-In1-Se2 'I -4 2 d'  #122            
  positions in direct lattice
  No initial velocities read in
 


--------------------------------------------------------------------------------------------------------


 ion  position               nearest neighbor table
   1  0.000  0.500  0.250-   9 2.46  11 2.46  13 2.46  14 2.46
   2  0.000  0.000  0.000-  10 2.46  12 2.46  13 2.46  14 2.46
   3  0.500  0.000  0.750-  10 2.46  12 2.46  15 2.46  16 2.46
   4  0.500  0.500  0.500-   9 2.46  11 2.46  15 2.46  16 2.46
   5  0.000  0.500  0.750-  15 2.56  16 2.56  10 2.56  12 2.56
   6  0.000  0.000  0.500-  15 2.56  16 2.56   9 2.56  11 2.56
   7  0.500  0.000  0.250-  13 2.56  14 2.56   9 2.56  11 2.56
   8  0.500  0.500  0.000-  13 2.56  14 2.56  10 2.56  12 2.56
   9  0.750  0.265  0.375-   1 2.46   4 2.46   6 2.56   7 2.56
  10  0.250  0.765  0.875-   2 2.46   3 2.46   5 2.56   8 2.56
  11  0.250  0.735  0.375-   1 2.46   4 2.46   6 2.56   7 2.56
  12  0.750  0.235  0.875-   2 2.46   3 2.46   5 2.56   8 2.56
  13  0.235  0.250  0.125-   1 2.46   2 2.46   7 2.56   8 2.56
  14  0.765  0.750  0.125-   1 2.46   2 2.46   7 2.56   8 2.56
  15  0.735  0.750  0.625-   3 2.46   4 2.46   5 2.56   6 2.56
  16  0.265  0.250  0.625-   3 2.46   4 2.46   5 2.56   6 2.56
 
  LATTYP: Found a simple tetragonal cell.
 ALAT       =     5.7824000000
 C/A-ratio  =     2.0094078583
  
  Lattice vectors:
  
 A1 = (   5.7824000000,   0.0000000000,   0.0000000000)
 A2 = (   0.0000000000,   5.7824000000,   0.0000000000)
 A3 = (   0.0000000000,   0.0000000000,  11.6192000000)


Analysis of symmetry for initial positions (statically):
=====================================================================
 Subroutine PRICEL returns following result:
 
  LATTYP: Found a body centered tetragonal cell.
 ALAT       =     5.7824000000
 C/A-ratio  =     2.0094078583
  
  Lattice vectors:
  
 A1 = (   2.8912000000,  -2.8912000000,   5.8096000000)
 A2 = (  -2.8912000000,   2.8912000000,   5.8096000000)
 A3 = (  -2.8912000000,  -2.8912000000,  -5.8096000000)
 
   2 primitive cells build up your supercell.
 

 Routine SETGRP: Setting up the symmetry group for a 
 simple tetragonal supercell.


 Subroutine GETGRP returns: Found  8 space group operations
 (whereof  4 operations were pure point group operations)
 out of a pool of 16 trial point group operations.


The static configuration has the point symmetry S_4 .
 The point group associated with its full space group is D_2d.


Analysis of symmetry for dynamics (positions and initial velocities):
=====================================================================
 Subroutine PRICEL returns following result:
 
  LATTYP: Found a body centered tetragonal cell.
 ALAT       =     5.7824000000
 C/A-ratio  =     2.0094078583
  
  Lattice vectors:
  
 A1 = (   2.8912000000,  -2.8912000000,   5.8096000000)
 A2 = (  -2.8912000000,   2.8912000000,   5.8096000000)
 A3 = (  -2.8912000000,  -2.8912000000,  -5.8096000000)
 
   2 primitive cells build up your supercell.
 

 Routine SETGRP: Setting up the symmetry group for a 
 simple tetragonal supercell.


 Subroutine GETGRP returns: Found  8 space group operations
 (whereof  4 operations were pure point group operations)
 out of a pool of 16 trial point group operations.


The dynamic configuration has the point symmetry S_4 .
 The point group associated with its full space group is D_2d.


 Subroutine INISYM returns: Found  8 space group operations
 (whereof  4 operations are pure point group operations),
 and found     2 'primitive' translations

 
 
 KPOINTS: KPOINTS                                 

Automatic generation of k-mesh.
Space group operators:
 irot       det(A)        alpha          n_x          n_y          n_z        tau_x        tau_y        tau_z
    1     1.000000     0.000000     1.000000     0.000000     0.000000     0.000000     0.000000     0.000000
    2    -1.000000    90.000000     0.000000     0.000000    -1.000000     0.000000     0.000000     0.000000
    3     1.000000   180.000000     0.000000     0.000000     1.000000     0.000000     0.000000     0.000000
    4    -1.000000    90.000000     0.000000     0.000000     1.000000     0.000000     0.000000     0.000000
    5     1.000000   180.000000     0.000000     1.000000     0.000000     0.000000    -0.500000     0.250000
    6    -1.000000   180.000000     0.707107     0.707107     0.000000     0.000000    -0.500000     0.250000
    7     1.000000   180.000000     1.000000     0.000000     0.000000     0.000000    -0.500000     0.250000
    8    -1.000000   180.000000     0.707107    -0.707107     0.000000     0.000000    -0.500000     0.250000
 
 Subroutine IBZKPT returns following result:
 ===========================================
 
 Found     63 irreducible k-points:
 
 Following reciprocal coordinates:
            Coordinates               Weight
  0.000000  0.000000  0.000000      1.000000
  0.100000  0.000000  0.000000      4.000000
  0.200000  0.000000  0.000000      4.000000
  0.300000  0.000000  0.000000      4.000000
  0.400000  0.000000  0.000000      4.000000
  0.500000  0.000000  0.000000      2.000000
  0.100000  0.100000  0.000000      4.000000
  0.200000  0.100000  0.000000      8.000000
  0.300000  0.100000  0.000000      8.000000
  0.400000  0.100000  0.000000      8.000000
  0.500000  0.100000  0.000000      4.000000
  0.200000  0.200000  0.000000      4.000000
  0.300000  0.200000  0.000000      8.000000
  0.400000  0.200000  0.000000      8.000000
  0.500000  0.200000  0.000000      4.000000
  0.300000  0.300000  0.000000      4.000000
  0.400000  0.300000  0.000000      8.000000
  0.500000  0.300000  0.000000      4.000000
  0.400000  0.400000  0.000000      4.000000
  0.500000  0.400000  0.000000      4.000000
  0.500000  0.500000  0.000000      1.000000
  0.000000  0.000000  0.200000      2.000000
  0.100000  0.000000  0.200000      8.000000
  0.200000  0.000000  0.200000      8.000000
  0.300000  0.000000  0.200000      8.000000
  0.400000  0.000000  0.200000      8.000000
  0.500000  0.000000  0.200000      4.000000
  0.100000  0.100000  0.200000      8.000000
  0.200000  0.100000  0.200000     16.000000
  0.300000  0.100000  0.200000     16.000000
  0.400000  0.100000  0.200000     16.000000
  0.500000  0.100000  0.200000      8.000000
  0.200000  0.200000  0.200000      8.000000
  0.300000  0.200000  0.200000     16.000000
  0.400000  0.200000  0.200000     16.000000
  0.500000  0.200000  0.200000      8.000000
  0.300000  0.300000  0.200000      8.000000
  0.400000  0.300000  0.200000     16.000000
  0.500000  0.300000  0.200000      8.000000
  0.400000  0.400000  0.200000      8.000000
  0.500000  0.400000  0.200000      8.000000
  0.500000  0.500000  0.200000      2.000000
  0.000000  0.000000  0.400000      2.000000
  0.100000  0.000000  0.400000      8.000000
  0.200000  0.000000  0.400000      8.000000
  0.300000  0.000000  0.400000      8.000000
  0.400000  0.000000  0.400000      8.000000
  0.500000  0.000000  0.400000      4.000000
  0.100000  0.100000  0.400000      8.000000
  0.200000  0.100000  0.400000     16.000000
  0.300000  0.100000  0.400000     16.000000
  0.400000  0.100000  0.400000     16.000000
  0.500000  0.100000  0.400000      8.000000
  0.200000  0.200000  0.400000      8.000000
  0.300000  0.200000  0.400000     16.000000
  0.400000  0.200000  0.400000     16.000000
  0.500000  0.200000  0.400000      8.000000
  0.300000  0.300000  0.400000      8.000000
  0.400000  0.300000  0.400000     16.000000
  0.500000  0.300000  0.400000      8.000000
  0.400000  0.400000  0.400000      8.000000
  0.500000  0.400000  0.400000      8.000000
  0.500000  0.500000  0.400000      2.000000
 
 Following cartesian coordinates:
            Coordinates               Weight
  0.000000  0.000000  0.000000      1.000000
  0.017294  0.000000  0.000000      4.000000
  0.034588  0.000000  0.000000      4.000000
  0.051882  0.000000  0.000000      4.000000
  0.069175  0.000000  0.000000      4.000000
  0.086469  0.000000  0.000000      2.000000
  0.017294  0.017294  0.000000      4.000000
  0.034588  0.017294  0.000000      8.000000
  0.051882  0.017294  0.000000      8.000000
  0.069175  0.017294  0.000000      8.000000
  0.086469  0.017294  0.000000      4.000000
  0.034588  0.034588  0.000000      4.000000
  0.051882  0.034588  0.000000      8.000000
  0.069175  0.034588  0.000000      8.000000
  0.086469  0.034588  0.000000      4.000000
  0.051882  0.051882  0.000000      4.000000
  0.069175  0.051882  0.000000      8.000000
  0.086469  0.051882  0.000000      4.000000
  0.069175  0.069175  0.000000      4.000000
  0.086469  0.069175  0.000000      4.000000
  0.086469  0.086469  0.000000      1.000000
  0.000000  0.000000  0.017213      2.000000
  0.017294  0.000000  0.017213      8.000000
  0.034588  0.000000  0.017213      8.000000
  0.051882  0.000000  0.017213      8.000000
  0.069175  0.000000  0.017213      8.000000
  0.086469  0.000000  0.017213      4.000000
  0.017294  0.017294  0.017213      8.000000
  0.034588  0.017294  0.017213     16.000000
  0.051882  0.017294  0.017213     16.000000
  0.069175  0.017294  0.017213     16.000000
  0.086469  0.017294  0.017213      8.000000
  0.034588  0.034588  0.017213      8.000000
  0.051882  0.034588  0.017213     16.000000
  0.069175  0.034588  0.017213     16.000000
  0.086469  0.034588  0.017213      8.000000
  0.051882  0.051882  0.017213      8.000000
  0.069175  0.051882  0.017213     16.000000
  0.086469  0.051882  0.017213      8.000000
  0.069175  0.069175  0.017213      8.000000
  0.086469  0.069175  0.017213      8.000000
  0.086469  0.086469  0.017213      2.000000
  0.000000  0.000000  0.034426      2.000000
  0.017294  0.000000  0.034426      8.000000
  0.034588  0.000000  0.034426      8.000000
  0.051882  0.000000  0.034426      8.000000
  0.069175  0.000000  0.034426      8.000000
  0.086469  0.000000  0.034426      4.000000
  0.017294  0.017294  0.034426      8.000000
  0.034588  0.017294  0.034426     16.000000
  0.051882  0.017294  0.034426     16.000000
  0.069175  0.017294  0.034426     16.000000
  0.086469  0.017294  0.034426      8.000000
  0.034588  0.034588  0.034426      8.000000
  0.051882  0.034588  0.034426     16.000000
  0.069175  0.034588  0.034426     16.000000
  0.086469  0.034588  0.034426      8.000000
  0.051882  0.051882  0.034426      8.000000
  0.069175  0.051882  0.034426     16.000000
  0.086469  0.051882  0.034426      8.000000
  0.069175  0.069175  0.034426      8.000000
  0.086469  0.069175  0.034426      8.000000
  0.086469  0.086469  0.034426      2.000000
 
 
 Subroutine IBZKPT_HF returns following result:
 ==============================================
 
 Found    500 k-points in 1st BZ
 the following    500 k-points will be used (e.g. in the exchange kernel)
 Following reciprocal coordinates:   # in IRBZ
  0.000000  0.000000  0.000000    0.00200000   1 t-inv F
  0.100000  0.000000  0.000000    0.00200000   2 t-inv F
  0.200000  0.000000  0.000000    0.00200000   3 t-inv F
  0.300000  0.000000  0.000000    0.00200000   4 t-inv F
  0.400000  0.000000  0.000000    0.00200000   5 t-inv F
  0.500000  0.000000  0.000000    0.00200000   6 t-inv F
  0.100000  0.100000  0.000000    0.00200000   7 t-inv F
  0.200000  0.100000  0.000000    0.00200000   8 t-inv F
  0.300000  0.100000  0.000000    0.00200000   9 t-inv F
  0.400000  0.100000  0.000000    0.00200000  10 t-inv F
  0.500000  0.100000  0.000000    0.00200000  11 t-inv F
  0.200000  0.200000  0.000000    0.00200000  12 t-inv F
  0.300000  0.200000  0.000000    0.00200000  13 t-inv F
  0.400000  0.200000  0.000000    0.00200000  14 t-inv F
  0.500000  0.200000  0.000000    0.00200000  15 t-inv F
  0.300000  0.300000  0.000000    0.00200000  16 t-inv F
  0.400000  0.300000  0.000000    0.00200000  17 t-inv F
  0.500000  0.300000  0.000000    0.00200000  18 t-inv F
  0.400000  0.400000  0.000000    0.00200000  19 t-inv F
  0.500000  0.400000  0.000000    0.00200000  20 t-inv F
  0.500000  0.500000  0.000000    0.00200000  21 t-inv F
  0.000000  0.000000  0.200000    0.00200000  22 t-inv F
  0.100000  0.000000  0.200000    0.00200000  23 t-inv F
  0.200000  0.000000  0.200000    0.00200000  24 t-inv F
  0.300000  0.000000  0.200000    0.00200000  25 t-inv F
  0.400000  0.000000  0.200000    0.00200000  26 t-inv F
  0.500000  0.000000  0.200000    0.00200000  27 t-inv F
  0.100000  0.100000  0.200000    0.00200000  28 t-inv F
  0.200000  0.100000  0.200000    0.00200000  29 t-inv F
  0.300000  0.100000  0.200000    0.00200000  30 t-inv F
  0.400000  0.100000  0.200000    0.00200000  31 t-inv F
  0.500000  0.100000  0.200000    0.00200000  32 t-inv F
  0.200000  0.200000  0.200000    0.00200000  33 t-inv F
  0.300000  0.200000  0.200000    0.00200000  34 t-inv F
  0.400000  0.200000  0.200000    0.00200000  35 t-inv F
  0.500000  0.200000  0.200000    0.00200000  36 t-inv F
  0.300000  0.300000  0.200000    0.00200000  37 t-inv F
  0.400000  0.300000  0.200000    0.00200000  38 t-inv F
  0.500000  0.300000  0.200000    0.00200000  39 t-inv F
  0.400000  0.400000  0.200000    0.00200000  40 t-inv F
  0.500000  0.400000  0.200000    0.00200000  41 t-inv F
  0.500000  0.500000  0.200000    0.00200000  42 t-inv F
  0.000000  0.000000  0.400000    0.00200000  43 t-inv F
  0.100000  0.000000  0.400000    0.00200000  44 t-inv F
  0.200000  0.000000  0.400000    0.00200000  45 t-inv F
  0.300000  0.000000  0.400000    0.00200000  46 t-inv F
  0.400000  0.000000  0.400000    0.00200000  47 t-inv F
  0.500000  0.000000  0.400000    0.00200000  48 t-inv F
  0.100000  0.100000  0.400000    0.00200000  49 t-inv F
  0.200000  0.100000  0.400000    0.00200000  50 t-inv F
  0.300000  0.100000  0.400000    0.00200000  51 t-inv F
  0.400000  0.100000  0.400000    0.00200000  52 t-inv F
  0.500000  0.100000  0.400000    0.00200000  53 t-inv F
  0.200000  0.200000  0.400000    0.00200000  54 t-inv F
  0.300000  0.200000  0.400000    0.00200000  55 t-inv F
  0.400000  0.200000  0.400000    0.00200000  56 t-inv F
  0.500000  0.200000  0.400000    0.00200000  57 t-inv F
  0.300000  0.300000  0.400000    0.00200000  58 t-inv F
  0.400000  0.300000  0.400000    0.00200000  59 t-inv F
  0.500000  0.300000  0.400000    0.00200000  60 t-inv F
  0.400000  0.400000  0.400000    0.00200000  61 t-inv F
  0.500000  0.400000  0.400000    0.00200000  62 t-inv F
  0.500000  0.500000  0.400000    0.00200000  63 t-inv F
  0.000000 -0.100000  0.000000    0.00200000   2 t-inv F
 -0.100000  0.000000  0.000000    0.00200000   2 t-inv F
  0.000000  0.100000  0.000000    0.00200000   2 t-inv F
  0.000000 -0.200000  0.000000    0.00200000   3 t-inv F
 -0.200000  0.000000  0.000000    0.00200000   3 t-inv F
  0.000000  0.200000  0.000000    0.00200000   3 t-inv F
  0.000000 -0.300000  0.000000    0.00200000   4 t-inv F
 -0.300000  0.000000  0.000000    0.00200000   4 t-inv F
  0.000000  0.300000  0.000000    0.00200000   4 t-inv F
  0.000000 -0.400000  0.000000    0.00200000   5 t-inv F
 -0.400000  0.000000  0.000000    0.00200000   5 t-inv F
  0.000000  0.400000  0.000000    0.00200000   5 t-inv F
  0.000000 -0.500000  0.000000    0.00200000   6 t-inv F
  0.100000 -0.100000  0.000000    0.00200000   7 t-inv F
 -0.100000 -0.100000  0.000000    0.00200000   7 t-inv F
 -0.100000  0.100000  0.000000    0.00200000   7 t-inv F
  0.100000 -0.200000  0.000000    0.00200000   8 t-inv F
 -0.200000 -0.100000  0.000000    0.00200000   8 t-inv F
 -0.100000  0.200000  0.000000    0.00200000   8 t-inv F
 -0.200000  0.100000  0.000000    0.00200000   8 t-inv F
 -0.100000 -0.200000  0.000000    0.00200000   8 t-inv F
  0.200000 -0.100000  0.000000    0.00200000   8 t-inv F
  0.100000  0.200000  0.000000    0.00200000   8 t-inv F
  0.100000 -0.300000  0.000000    0.00200000   9 t-inv F
 -0.300000 -0.100000  0.000000    0.00200000   9 t-inv F
 -0.100000  0.300000  0.000000    0.00200000   9 t-inv F
 -0.300000  0.100000  0.000000    0.00200000   9 t-inv F
 -0.100000 -0.300000  0.000000    0.00200000   9 t-inv F
  0.300000 -0.100000  0.000000    0.00200000   9 t-inv F
  0.100000  0.300000  0.000000    0.00200000   9 t-inv F
  0.100000 -0.400000  0.000000    0.00200000  10 t-inv F
 -0.400000 -0.100000  0.000000    0.00200000  10 t-inv F
 -0.100000  0.400000  0.000000    0.00200000  10 t-inv F
 -0.400000  0.100000  0.000000    0.00200000  10 t-inv F
 -0.100000 -0.400000  0.000000    0.00200000  10 t-inv F
  0.400000 -0.100000  0.000000    0.00200000  10 t-inv F
  0.100000  0.400000  0.000000    0.00200000  10 t-inv F
  0.100000 -0.500000  0.000000    0.00200000  11 t-inv F
 -0.500000 -0.100000  0.000000    0.00200000  11 t-inv F
 -0.100000  0.500000  0.000000    0.00200000  11 t-inv F
  0.200000 -0.200000  0.000000    0.00200000  12 t-inv F
 -0.200000 -0.200000  0.000000    0.00200000  12 t-inv F
 -0.200000  0.200000  0.000000    0.00200000  12 t-inv F
  0.200000 -0.300000  0.000000    0.00200000  13 t-inv F
 -0.300000 -0.200000  0.000000    0.00200000  13 t-inv F
 -0.200000  0.300000  0.000000    0.00200000  13 t-inv F
 -0.300000  0.200000  0.000000    0.00200000  13 t-inv F
 -0.200000 -0.300000  0.000000    0.00200000  13 t-inv F
  0.300000 -0.200000  0.000000    0.00200000  13 t-inv F
  0.200000  0.300000  0.000000    0.00200000  13 t-inv F
  0.200000 -0.400000  0.000000    0.00200000  14 t-inv F
 -0.400000 -0.200000  0.000000    0.00200000  14 t-inv F
 -0.200000  0.400000  0.000000    0.00200000  14 t-inv F
 -0.400000  0.200000  0.000000    0.00200000  14 t-inv F
 -0.200000 -0.400000  0.000000    0.00200000  14 t-inv F
  0.400000 -0.200000  0.000000    0.00200000  14 t-inv F
  0.200000  0.400000  0.000000    0.00200000  14 t-inv F
  0.200000 -0.500000  0.000000    0.00200000  15 t-inv F
 -0.500000 -0.200000  0.000000    0.00200000  15 t-inv F
 -0.200000  0.500000  0.000000    0.00200000  15 t-inv F
  0.300000 -0.300000  0.000000    0.00200000  16 t-inv F
 -0.300000 -0.300000  0.000000    0.00200000  16 t-inv F
 -0.300000  0.300000  0.000000    0.00200000  16 t-inv F
  0.300000 -0.400000  0.000000    0.00200000  17 t-inv F
 -0.400000 -0.300000  0.000000    0.00200000  17 t-inv F
 -0.300000  0.400000  0.000000    0.00200000  17 t-inv F
 -0.400000  0.300000  0.000000    0.00200000  17 t-inv F
 -0.300000 -0.400000  0.000000    0.00200000  17 t-inv F
  0.400000 -0.300000  0.000000    0.00200000  17 t-inv F
  0.300000  0.400000  0.000000    0.00200000  17 t-inv F
  0.300000 -0.500000  0.000000    0.00200000  18 t-inv F
 -0.500000 -0.300000  0.000000    0.00200000  18 t-inv F
 -0.300000  0.500000  0.000000    0.00200000  18 t-inv F
  0.400000 -0.400000  0.000000    0.00200000  19 t-inv F
 -0.400000 -0.400000  0.000000    0.00200000  19 t-inv F
 -0.400000  0.400000  0.000000    0.00200000  19 t-inv F
  0.400000 -0.500000  0.000000    0.00200000  20 t-inv F
 -0.500000 -0.400000  0.000000    0.00200000  20 t-inv F
 -0.400000  0.500000  0.000000    0.00200000  20 t-inv F
  0.000000  0.000000 -0.200000    0.00200000  22 t-inv F
  0.000000 -0.100000 -0.200000    0.00200000  23 t-inv F
 -0.100000  0.000000  0.200000    0.00200000  23 t-inv F
  0.000000  0.100000 -0.200000    0.00200000  23 t-inv F
 -0.100000  0.000000 -0.200000    0.00200000  23 t-inv F
  0.000000 -0.100000  0.200000    0.00200000  23 t-inv F
  0.100000  0.000000 -0.200000    0.00200000  23 t-inv F
  0.000000  0.100000  0.200000    0.00200000  23 t-inv F
  0.000000 -0.200000 -0.200000    0.00200000  24 t-inv F
 -0.200000  0.000000  0.200000    0.00200000  24 t-inv F
  0.000000  0.200000 -0.200000    0.00200000  24 t-inv F
 -0.200000  0.000000 -0.200000    0.00200000  24 t-inv F
  0.000000 -0.200000  0.200000    0.00200000  24 t-inv F
  0.200000  0.000000 -0.200000    0.00200000  24 t-inv F
  0.000000  0.200000  0.200000    0.00200000  24 t-inv F
  0.000000 -0.300000 -0.200000    0.00200000  25 t-inv F
 -0.300000  0.000000  0.200000    0.00200000  25 t-inv F
  0.000000  0.300000 -0.200000    0.00200000  25 t-inv F
 -0.300000  0.000000 -0.200000    0.00200000  25 t-inv F
  0.000000 -0.300000  0.200000    0.00200000  25 t-inv F
  0.300000  0.000000 -0.200000    0.00200000  25 t-inv F
  0.000000  0.300000  0.200000    0.00200000  25 t-inv F
  0.000000 -0.400000 -0.200000    0.00200000  26 t-inv F
 -0.400000  0.000000  0.200000    0.00200000  26 t-inv F
  0.000000  0.400000 -0.200000    0.00200000  26 t-inv F
 -0.400000  0.000000 -0.200000    0.00200000  26 t-inv F
  0.000000 -0.400000  0.200000    0.00200000  26 t-inv F
  0.400000  0.000000 -0.200000    0.00200000  26 t-inv F
  0.000000  0.400000  0.200000    0.00200000  26 t-inv F
  0.000000 -0.500000 -0.200000    0.00200000  27 t-inv F
 -0.500000  0.000000 -0.200000    0.00200000  27 t-inv F
  0.000000 -0.500000  0.200000    0.00200000  27 t-inv F
  0.100000 -0.100000 -0.200000    0.00200000  28 t-inv F
 -0.100000 -0.100000  0.200000    0.00200000  28 t-inv F
 -0.100000  0.100000 -0.200000    0.00200000  28 t-inv F
  0.100000 -0.200000 -0.200000    0.00200000  29 t-inv F
 -0.200000 -0.100000  0.200000    0.00200000  29 t-inv F
 -0.100000  0.200000 -0.200000    0.00200000  29 t-inv F
 -0.200000  0.100000 -0.200000    0.00200000  29 t-inv F
 -0.100000 -0.200000  0.200000    0.00200000  29 t-inv F
  0.200000 -0.100000 -0.200000    0.00200000  29 t-inv F
  0.100000  0.200000  0.200000    0.00200000  29 t-inv F
  0.100000 -0.300000 -0.200000    0.00200000  30 t-inv F
 -0.300000 -0.100000  0.200000    0.00200000  30 t-inv F
 -0.100000  0.300000 -0.200000    0.00200000  30 t-inv F
 -0.300000  0.100000 -0.200000    0.00200000  30 t-inv F
 -0.100000 -0.300000  0.200000    0.00200000  30 t-inv F
  0.300000 -0.100000 -0.200000    0.00200000  30 t-inv F
  0.100000  0.300000  0.200000    0.00200000  30 t-inv F
  0.100000 -0.400000 -0.200000    0.00200000  31 t-inv F
 -0.400000 -0.100000  0.200000    0.00200000  31 t-inv F
 -0.100000  0.400000 -0.200000    0.00200000  31 t-inv F
 -0.400000  0.100000 -0.200000    0.00200000  31 t-inv F
 -0.100000 -0.400000  0.200000    0.00200000  31 t-inv F
  0.400000 -0.100000 -0.200000    0.00200000  31 t-inv F
  0.100000  0.400000  0.200000    0.00200000  31 t-inv F
  0.100000 -0.500000 -0.200000    0.00200000  32 t-inv F
 -0.500000 -0.100000  0.200000    0.00200000  32 t-inv F
 -0.100000  0.500000 -0.200000    0.00200000  32 t-inv F
 -0.500000  0.100000 -0.200000    0.00200000  32 t-inv F
 -0.100000 -0.500000  0.200000    0.00200000  32 t-inv F
  0.500000 -0.100000 -0.200000    0.00200000  32 t-inv F
  0.100000  0.500000  0.200000    0.00200000  32 t-inv F
  0.200000 -0.200000 -0.200000    0.00200000  33 t-inv F
 -0.200000 -0.200000  0.200000    0.00200000  33 t-inv F
 -0.200000  0.200000 -0.200000    0.00200000  33 t-inv F
  0.200000 -0.300000 -0.200000    0.00200000  34 t-inv F
 -0.300000 -0.200000  0.200000    0.00200000  34 t-inv F
 -0.200000  0.300000 -0.200000    0.00200000  34 t-inv F
 -0.300000  0.200000 -0.200000    0.00200000  34 t-inv F
 -0.200000 -0.300000  0.200000    0.00200000  34 t-inv F
  0.300000 -0.200000 -0.200000    0.00200000  34 t-inv F
  0.200000  0.300000  0.200000    0.00200000  34 t-inv F
  0.200000 -0.400000 -0.200000    0.00200000  35 t-inv F
 -0.400000 -0.200000  0.200000    0.00200000  35 t-inv F
 -0.200000  0.400000 -0.200000    0.00200000  35 t-inv F
 -0.400000  0.200000 -0.200000    0.00200000  35 t-inv F
 -0.200000 -0.400000  0.200000    0.00200000  35 t-inv F
  0.400000 -0.200000 -0.200000    0.00200000  35 t-inv F
  0.200000  0.400000  0.200000    0.00200000  35 t-inv F
  0.200000 -0.500000 -0.200000    0.00200000  36 t-inv F
 -0.500000 -0.200000  0.200000    0.00200000  36 t-inv F
 -0.200000  0.500000 -0.200000    0.00200000  36 t-inv F
 -0.500000  0.200000 -0.200000    0.00200000  36 t-inv F
 -0.200000 -0.500000  0.200000    0.00200000  36 t-inv F
  0.500000 -0.200000 -0.200000    0.00200000  36 t-inv F
  0.200000  0.500000  0.200000    0.00200000  36 t-inv F
  0.300000 -0.300000 -0.200000    0.00200000  37 t-inv F
 -0.300000 -0.300000  0.200000    0.00200000  37 t-inv F
 -0.300000  0.300000 -0.200000    0.00200000  37 t-inv F
  0.300000 -0.400000 -0.200000    0.00200000  38 t-inv F
 -0.400000 -0.300000  0.200000    0.00200000  38 t-inv F
 -0.300000  0.400000 -0.200000    0.00200000  38 t-inv F
 -0.400000  0.300000 -0.200000    0.00200000  38 t-inv F
 -0.300000 -0.400000  0.200000    0.00200000  38 t-inv F
  0.400000 -0.300000 -0.200000    0.00200000  38 t-inv F
  0.300000  0.400000  0.200000    0.00200000  38 t-inv F
  0.300000 -0.500000 -0.200000    0.00200000  39 t-inv F
 -0.500000 -0.300000  0.200000    0.00200000  39 t-inv F
 -0.300000  0.500000 -0.200000    0.00200000  39 t-inv F
 -0.500000  0.300000 -0.200000    0.00200000  39 t-inv F
 -0.300000 -0.500000  0.200000    0.00200000  39 t-inv F
  0.500000 -0.300000 -0.200000    0.00200000  39 t-inv F
  0.300000  0.500000  0.200000    0.00200000  39 t-inv F
  0.400000 -0.400000 -0.200000    0.00200000  40 t-inv F
 -0.400000 -0.400000  0.200000    0.00200000  40 t-inv F
 -0.400000  0.400000 -0.200000    0.00200000  40 t-inv F
  0.400000 -0.500000 -0.200000    0.00200000  41 t-inv F
 -0.500000 -0.400000  0.200000    0.00200000  41 t-inv F
 -0.400000  0.500000 -0.200000    0.00200000  41 t-inv F
 -0.500000  0.400000 -0.200000    0.00200000  41 t-inv F
 -0.400000 -0.500000  0.200000    0.00200000  41 t-inv F
  0.500000 -0.400000 -0.200000    0.00200000  41 t-inv F
  0.400000  0.500000  0.200000    0.00200000  41 t-inv F
  0.500000 -0.500000 -0.200000    0.00200000  42 t-inv F
  0.000000  0.000000 -0.400000    0.00200000  43 t-inv F
  0.000000 -0.100000 -0.400000    0.00200000  44 t-inv F
 -0.100000  0.000000  0.400000    0.00200000  44 t-inv F
  0.000000  0.100000 -0.400000    0.00200000  44 t-inv F
 -0.100000  0.000000 -0.400000    0.00200000  44 t-inv F
  0.000000 -0.100000  0.400000    0.00200000  44 t-inv F
  0.100000  0.000000 -0.400000    0.00200000  44 t-inv F
  0.000000  0.100000  0.400000    0.00200000  44 t-inv F
  0.000000 -0.200000 -0.400000    0.00200000  45 t-inv F
 -0.200000  0.000000  0.400000    0.00200000  45 t-inv F
  0.000000  0.200000 -0.400000    0.00200000  45 t-inv F
 -0.200000  0.000000 -0.400000    0.00200000  45 t-inv F
  0.000000 -0.200000  0.400000    0.00200000  45 t-inv F
  0.200000  0.000000 -0.400000    0.00200000  45 t-inv F
  0.000000  0.200000  0.400000    0.00200000  45 t-inv F
  0.000000 -0.300000 -0.400000    0.00200000  46 t-inv F
 -0.300000  0.000000  0.400000    0.00200000  46 t-inv F
  0.000000  0.300000 -0.400000    0.00200000  46 t-inv F
 -0.300000  0.000000 -0.400000    0.00200000  46 t-inv F
  0.000000 -0.300000  0.400000    0.00200000  46 t-inv F
  0.300000  0.000000 -0.400000    0.00200000  46 t-inv F
  0.000000  0.300000  0.400000    0.00200000  46 t-inv F
  0.000000 -0.400000 -0.400000    0.00200000  47 t-inv F
 -0.400000  0.000000  0.400000    0.00200000  47 t-inv F
  0.000000  0.400000 -0.400000    0.00200000  47 t-inv F
 -0.400000  0.000000 -0.400000    0.00200000  47 t-inv F
  0.000000 -0.400000  0.400000    0.00200000  47 t-inv F
  0.400000  0.000000 -0.400000    0.00200000  47 t-inv F
  0.000000  0.400000  0.400000    0.00200000  47 t-inv F
  0.000000 -0.500000 -0.400000    0.00200000  48 t-inv F
 -0.500000  0.000000 -0.400000    0.00200000  48 t-inv F
  0.000000 -0.500000  0.400000    0.00200000  48 t-inv F
  0.100000 -0.100000 -0.400000    0.00200000  49 t-inv F
 -0.100000 -0.100000  0.400000    0.00200000  49 t-inv F
 -0.100000  0.100000 -0.400000    0.00200000  49 t-inv F
  0.100000 -0.200000 -0.400000    0.00200000  50 t-inv F
 -0.200000 -0.100000  0.400000    0.00200000  50 t-inv F
 -0.100000  0.200000 -0.400000    0.00200000  50 t-inv F
 -0.200000  0.100000 -0.400000    0.00200000  50 t-inv F
 -0.100000 -0.200000  0.400000    0.00200000  50 t-inv F
  0.200000 -0.100000 -0.400000    0.00200000  50 t-inv F
  0.100000  0.200000  0.400000    0.00200000  50 t-inv F
  0.100000 -0.300000 -0.400000    0.00200000  51 t-inv F
 -0.300000 -0.100000  0.400000    0.00200000  51 t-inv F
 -0.100000  0.300000 -0.400000    0.00200000  51 t-inv F
 -0.300000  0.100000 -0.400000    0.00200000  51 t-inv F
 -0.100000 -0.300000  0.400000    0.00200000  51 t-inv F
  0.300000 -0.100000 -0.400000    0.00200000  51 t-inv F
  0.100000  0.300000  0.400000    0.00200000  51 t-inv F
  0.100000 -0.400000 -0.400000    0.00200000  52 t-inv F
 -0.400000 -0.100000  0.400000    0.00200000  52 t-inv F
 -0.100000  0.400000 -0.400000    0.00200000  52 t-inv F
 -0.400000  0.100000 -0.400000    0.00200000  52 t-inv F
 -0.100000 -0.400000  0.400000    0.00200000  52 t-inv F
  0.400000 -0.100000 -0.400000    0.00200000  52 t-inv F
  0.100000  0.400000  0.400000    0.00200000  52 t-inv F
  0.100000 -0.500000 -0.400000    0.00200000  53 t-inv F
 -0.500000 -0.100000  0.400000    0.00200000  53 t-inv F
 -0.100000  0.500000 -0.400000    0.00200000  53 t-inv F
 -0.500000  0.100000 -0.400000    0.00200000  53 t-inv F
 -0.100000 -0.500000  0.400000    0.00200000  53 t-inv F
  0.500000 -0.100000 -0.400000    0.00200000  53 t-inv F
  0.100000  0.500000  0.400000    0.00200000  53 t-inv F
  0.200000 -0.200000 -0.400000    0.00200000  54 t-inv F
 -0.200000 -0.200000  0.400000    0.00200000  54 t-inv F
 -0.200000  0.200000 -0.400000    0.00200000  54 t-inv F
  0.200000 -0.300000 -0.400000    0.00200000  55 t-inv F
 -0.300000 -0.200000  0.400000    0.00200000  55 t-inv F
 -0.200000  0.300000 -0.400000    0.00200000  55 t-inv F
 -0.300000  0.200000 -0.400000    0.00200000  55 t-inv F
 -0.200000 -0.300000  0.400000    0.00200000  55 t-inv F
  0.300000 -0.200000 -0.400000    0.00200000  55 t-inv F
  0.200000  0.300000  0.400000    0.00200000  55 t-inv F
  0.200000 -0.400000 -0.400000    0.00200000  56 t-inv F
 -0.400000 -0.200000  0.400000    0.00200000  56 t-inv F
 -0.200000  0.400000 -0.400000    0.00200000  56 t-inv F
 -0.400000  0.200000 -0.400000    0.00200000  56 t-inv F
 -0.200000 -0.400000  0.400000    0.00200000  56 t-inv F
  0.400000 -0.200000 -0.400000    0.00200000  56 t-inv F
  0.200000  0.400000  0.400000    0.00200000  56 t-inv F
  0.200000 -0.500000 -0.400000    0.00200000  57 t-inv F
 -0.500000 -0.200000  0.400000    0.00200000  57 t-inv F
 -0.200000  0.500000 -0.400000    0.00200000  57 t-inv F
 -0.500000  0.200000 -0.400000    0.00200000  57 t-inv F
 -0.200000 -0.500000  0.400000    0.00200000  57 t-inv F
  0.500000 -0.200000 -0.400000    0.00200000  57 t-inv F
  0.200000  0.500000  0.400000    0.00200000  57 t-inv F
  0.300000 -0.300000 -0.400000    0.00200000  58 t-inv F
 -0.300000 -0.300000  0.400000    0.00200000  58 t-inv F
 -0.300000  0.300000 -0.400000    0.00200000  58 t-inv F
  0.300000 -0.400000 -0.400000    0.00200000  59 t-inv F
 -0.400000 -0.300000  0.400000    0.00200000  59 t-inv F
 -0.300000  0.400000 -0.400000    0.00200000  59 t-inv F
 -0.400000  0.300000 -0.400000    0.00200000  59 t-inv F
 -0.300000 -0.400000  0.400000    0.00200000  59 t-inv F
  0.400000 -0.300000 -0.400000    0.00200000  59 t-inv F
  0.300000  0.400000  0.400000    0.00200000  59 t-inv F
  0.300000 -0.500000 -0.400000    0.00200000  60 t-inv F
 -0.500000 -0.300000  0.400000    0.00200000  60 t-inv F
 -0.300000  0.500000 -0.400000    0.00200000  60 t-inv F
 -0.500000  0.300000 -0.400000    0.00200000  60 t-inv F
 -0.300000 -0.500000  0.400000    0.00200000  60 t-inv F
  0.500000 -0.300000 -0.400000    0.00200000  60 t-inv F
  0.300000  0.500000  0.400000    0.00200000  60 t-inv F
  0.400000 -0.400000 -0.400000    0.00200000  61 t-inv F
 -0.400000 -0.400000  0.400000    0.00200000  61 t-inv F
 -0.400000  0.400000 -0.400000    0.00200000  61 t-inv F
  0.400000 -0.500000 -0.400000    0.00200000  62 t-inv F
 -0.500000 -0.400000  0.400000    0.00200000  62 t-inv F
 -0.400000  0.500000 -0.400000    0.00200000  62 t-inv F
 -0.500000  0.400000 -0.400000    0.00200000  62 t-inv F
 -0.400000 -0.500000  0.400000    0.00200000  62 t-inv F
  0.500000 -0.400000 -0.400000    0.00200000  62 t-inv F
  0.400000  0.500000  0.400000    0.00200000  62 t-inv F
  0.500000 -0.500000 -0.400000    0.00200000  63 t-inv F
 -0.100000 -0.100000 -0.200000    0.00200000  28 t-inv T
 -0.100000  0.100000  0.200000    0.00200000  28 t-inv T
  0.100000  0.100000 -0.200000    0.00200000  28 t-inv T
  0.100000 -0.100000  0.200000    0.00200000  28 t-inv T
 -0.200000 -0.100000 -0.200000    0.00200000  29 t-inv T
 -0.100000  0.200000  0.200000    0.00200000  29 t-inv T
  0.200000  0.100000 -0.200000    0.00200000  29 t-inv T
  0.100000 -0.200000  0.200000    0.00200000  29 t-inv T
  0.200000 -0.100000  0.200000    0.00200000  29 t-inv T
  0.100000  0.200000 -0.200000    0.00200000  29 t-inv T
 -0.200000  0.100000  0.200000    0.00200000  29 t-inv T
 -0.100000 -0.200000 -0.200000    0.00200000  29 t-inv T
 -0.300000 -0.100000 -0.200000    0.00200000  30 t-inv T
 -0.100000  0.300000  0.200000    0.00200000  30 t-inv T
  0.300000  0.100000 -0.200000    0.00200000  30 t-inv T
  0.100000 -0.300000  0.200000    0.00200000  30 t-inv T
  0.300000 -0.100000  0.200000    0.00200000  30 t-inv T
  0.100000  0.300000 -0.200000    0.00200000  30 t-inv T
 -0.300000  0.100000  0.200000    0.00200000  30 t-inv T
 -0.100000 -0.300000 -0.200000    0.00200000  30 t-inv T
 -0.400000 -0.100000 -0.200000    0.00200000  31 t-inv T
 -0.100000  0.400000  0.200000    0.00200000  31 t-inv T
  0.400000  0.100000 -0.200000    0.00200000  31 t-inv T
  0.100000 -0.400000  0.200000    0.00200000  31 t-inv T
  0.400000 -0.100000  0.200000    0.00200000  31 t-inv T
  0.100000  0.400000 -0.200000    0.00200000  31 t-inv T
 -0.400000  0.100000  0.200000    0.00200000  31 t-inv T
 -0.100000 -0.400000 -0.200000    0.00200000  31 t-inv T
 -0.200000 -0.200000 -0.200000    0.00200000  33 t-inv T
 -0.200000  0.200000  0.200000    0.00200000  33 t-inv T
  0.200000  0.200000 -0.200000    0.00200000  33 t-inv T
  0.200000 -0.200000  0.200000    0.00200000  33 t-inv T
 -0.300000 -0.200000 -0.200000    0.00200000  34 t-inv T
 -0.200000  0.300000  0.200000    0.00200000  34 t-inv T
  0.300000  0.200000 -0.200000    0.00200000  34 t-inv T
  0.200000 -0.300000  0.200000    0.00200000  34 t-inv T
  0.300000 -0.200000  0.200000    0.00200000  34 t-inv T
  0.200000  0.300000 -0.200000    0.00200000  34 t-inv T
 -0.300000  0.200000  0.200000    0.00200000  34 t-inv T
 -0.200000 -0.300000 -0.200000    0.00200000  34 t-inv T
 -0.400000 -0.200000 -0.200000    0.00200000  35 t-inv T
 -0.200000  0.400000  0.200000    0.00200000  35 t-inv T
  0.400000  0.200000 -0.200000    0.00200000  35 t-inv T
  0.200000 -0.400000  0.200000    0.00200000  35 t-inv T
  0.400000 -0.200000  0.200000    0.00200000  35 t-inv T
  0.200000  0.400000 -0.200000    0.00200000  35 t-inv T
 -0.400000  0.200000  0.200000    0.00200000  35 t-inv T
 -0.200000 -0.400000 -0.200000    0.00200000  35 t-inv T
 -0.300000 -0.300000 -0.200000    0.00200000  37 t-inv T
 -0.300000  0.300000  0.200000    0.00200000  37 t-inv T
  0.300000  0.300000 -0.200000    0.00200000  37 t-inv T
  0.300000 -0.300000  0.200000    0.00200000  37 t-inv T
 -0.400000 -0.300000 -0.200000    0.00200000  38 t-inv T
 -0.300000  0.400000  0.200000    0.00200000  38 t-inv T
  0.400000  0.300000 -0.200000    0.00200000  38 t-inv T
  0.300000 -0.400000  0.200000    0.00200000  38 t-inv T
  0.400000 -0.300000  0.200000    0.00200000  38 t-inv T
  0.300000  0.400000 -0.200000    0.00200000  38 t-inv T
 -0.400000  0.300000  0.200000    0.00200000  38 t-inv T
 -0.300000 -0.400000 -0.200000    0.00200000  38 t-inv T
 -0.400000 -0.400000 -0.200000    0.00200000  40 t-inv T
 -0.400000  0.400000  0.200000    0.00200000  40 t-inv T
  0.400000  0.400000 -0.200000    0.00200000  40 t-inv T
  0.400000 -0.400000  0.200000    0.00200000  40 t-inv T
 -0.100000 -0.100000 -0.400000    0.00200000  49 t-inv T
 -0.100000  0.100000  0.400000    0.00200000  49 t-inv T
  0.100000  0.100000 -0.400000    0.00200000  49 t-inv T
  0.100000 -0.100000  0.400000    0.00200000  49 t-inv T
 -0.200000 -0.100000 -0.400000    0.00200000  50 t-inv T
 -0.100000  0.200000  0.400000    0.00200000  50 t-inv T
  0.200000  0.100000 -0.400000    0.00200000  50 t-inv T
  0.100000 -0.200000  0.400000    0.00200000  50 t-inv T
  0.200000 -0.100000  0.400000    0.00200000  50 t-inv T
  0.100000  0.200000 -0.400000    0.00200000  50 t-inv T
 -0.200000  0.100000  0.400000    0.00200000  50 t-inv T
 -0.100000 -0.200000 -0.400000    0.00200000  50 t-inv T
 -0.300000 -0.100000 -0.400000    0.00200000  51 t-inv T
 -0.100000  0.300000  0.400000    0.00200000  51 t-inv T
  0.300000  0.100000 -0.400000    0.00200000  51 t-inv T
  0.100000 -0.300000  0.400000    0.00200000  51 t-inv T
  0.300000 -0.100000  0.400000    0.00200000  51 t-inv T
  0.100000  0.300000 -0.400000    0.00200000  51 t-inv T
 -0.300000  0.100000  0.400000    0.00200000  51 t-inv T
 -0.100000 -0.300000 -0.400000    0.00200000  51 t-inv T
 -0.400000 -0.100000 -0.400000    0.00200000  52 t-inv T
 -0.100000  0.400000  0.400000    0.00200000  52 t-inv T
  0.400000  0.100000 -0.400000    0.00200000  52 t-inv T
  0.100000 -0.400000  0.400000    0.00200000  52 t-inv T
  0.400000 -0.100000  0.400000    0.00200000  52 t-inv T
  0.100000  0.400000 -0.400000    0.00200000  52 t-inv T
 -0.400000  0.100000  0.400000    0.00200000  52 t-inv T
 -0.100000 -0.400000 -0.400000    0.00200000  52 t-inv T
 -0.200000 -0.200000 -0.400000    0.00200000  54 t-inv T
 -0.200000  0.200000  0.400000    0.00200000  54 t-inv T
  0.200000  0.200000 -0.400000    0.00200000  54 t-inv T
  0.200000 -0.200000  0.400000    0.00200000  54 t-inv T
 -0.300000 -0.200000 -0.400000    0.00200000  55 t-inv T
 -0.200000  0.300000  0.400000    0.00200000  55 t-inv T
  0.300000  0.200000 -0.400000    0.00200000  55 t-inv T
  0.200000 -0.300000  0.400000    0.00200000  55 t-inv T
  0.300000 -0.200000  0.400000    0.00200000  55 t-inv T
  0.200000  0.300000 -0.400000    0.00200000  55 t-inv T
 -0.300000  0.200000  0.400000    0.00200000  55 t-inv T
 -0.200000 -0.300000 -0.400000    0.00200000  55 t-inv T
 -0.400000 -0.200000 -0.400000    0.00200000  56 t-inv T
 -0.200000  0.400000  0.400000    0.00200000  56 t-inv T
  0.400000  0.200000 -0.400000    0.00200000  56 t-inv T
  0.200000 -0.400000  0.400000    0.00200000  56 t-inv T
  0.400000 -0.200000  0.400000    0.00200000  56 t-inv T
  0.200000  0.400000 -0.400000    0.00200000  56 t-inv T
 -0.400000  0.200000  0.400000    0.00200000  56 t-inv T
 -0.200000 -0.400000 -0.400000    0.00200000  56 t-inv T
 -0.300000 -0.300000 -0.400000    0.00200000  58 t-inv T
 -0.300000  0.300000  0.400000    0.00200000  58 t-inv T
  0.300000  0.300000 -0.400000    0.00200000  58 t-inv T
  0.300000 -0.300000  0.400000    0.00200000  58 t-inv T
 -0.400000 -0.300000 -0.400000    0.00200000  59 t-inv T
 -0.300000  0.400000  0.400000    0.00200000  59 t-inv T
  0.400000  0.300000 -0.400000    0.00200000  59 t-inv T
  0.300000 -0.400000  0.400000    0.00200000  59 t-inv T
  0.400000 -0.300000  0.400000    0.00200000  59 t-inv T
  0.300000  0.400000 -0.400000    0.00200000  59 t-inv T
 -0.400000  0.300000  0.400000    0.00200000  59 t-inv T
 -0.300000 -0.400000 -0.400000    0.00200000  59 t-inv T
 -0.400000 -0.400000 -0.400000    0.00200000  61 t-inv T
 -0.400000  0.400000  0.400000    0.00200000  61 t-inv T
  0.400000  0.400000 -0.400000    0.00200000  61 t-inv T
  0.400000 -0.400000  0.400000    0.00200000  61 t-inv T


--------------------------------------------------------------------------------------------------------




 Dimension of arrays:
   k-points           NKPTS =     63   k-points in BZ     NKDIM =    500   number of bands    NBANDS=    640
   number of dos      NEDOS =    301   number of ions     NIONS =     16
   non local maximal  LDIM  =      6   non local SUM 2l+1 LMDIM =     18
   total plane-waves  NPLWV =  90720
   max r-space proj   IRMAX =      1   max aug-charges    IRDMAX=  81658
   dimension x,y,z NGX =    36 NGY =   36 NGZ =   70
   dimension x,y,z NGXF=    72 NGYF=   72 NGZF=  140
   support grid    NGXF=   144 NGYF=  144 NGZF=  280
   ions per type =               4   4   8
 NGX,Y,Z   is equivalent  to a cutoff of  10.35, 10.35, 10.02 a.u.
 NGXF,Y,Z  is equivalent  to a cutoff of  20.70, 20.70, 20.03 a.u.


 I would recommend the setting:
   dimension x,y,z NGX =    33 NGY =   33 NGZ =   66
 SYSTEM =  CuInSe                                  
 POSCAR =  Cu1-In1-Se2 'I -4 2 d'  #122            

 Startparameter for this run:
   NWRITE =      2    write-flag & timer
   PREC   = accura    normal or accurate (medium, high low for compatibility)
   ISTART =      1    job   : 0-new  1-cont  2-samecut
   ICHARG =      0    charge: 1-file 2-atom 10-const
   ISPIN  =      1    spin polarized calculation?
   LNONCOLLINEAR =      F non collinear calculations
   LSORBIT =      F    spin-orbit coupling
   INIWAV =      1    electr: 0-lowe 1-rand  2-diag
   LASPH  =      F    aspherical Exc in radial PAW
   METAGGA=      F    non-selfconsistent MetaGGA calc.

 Electronic Relaxation 1
   ENCUT  =  300.0 eV  22.05 Ry    4.70 a.u.   8.17  8.17 16.41*2*pi/ulx,y,z
   ENINI  =  300.0     initial cutoff
   ENAUG  =  516.5 eV  augmentation charge cutoff
   NELM   =     60;   NELMIN=  3; NELMDL=  0     # of ELM steps 
   EDIFF  = 0.1E-04   stopping-criterion for ELM
   LREAL  =      F    real-space projection
   NLSPLINE    = F    spline interpolate recip. space projectors
   LCOMPAT=      F    compatible to vasp.4.4
   GGA_COMPAT  = T    GGA compatible to vasp.4.4-vasp.4.6
   LMAXPAW     = -100 max onsite density
   LMAXMIX     =    4 max onsite mixed and CHGCAR
   VOSKOWN=      0    Vosko Wilk Nusair interpolation
   ROPT   =    0.00000   0.00000   0.00000
 Ionic relaxation
   EDIFFG = 0.1E-03   stopping-criterion for IOM
   NSW    =      0    number of steps for IOM
   NBLOCK =      1;   KBLOCK =      1    inner block; outer block 
   IBRION =     -1    ionic relax: 0-MD 1-quasi-New 2-CG
   NFREE  =      0    steps in history (QN), initial steepest desc. (CG)
   ISIF   =      0    stress and relaxation
   IWAVPR =     10    prediction:  0-non 1-charg 2-wave 3-comb
   ISYM   =      3    0-nonsym 1-usesym 2-fastsym
   LCORR  =      T    Harris-Foulkes like correction to forces

   POTIM  = 0.5000    time-step for ionic-motion
   TEIN   =    0.0    initial temperature
   TEBEG  =    0.0;   TEEND  =   0.0 temperature during run
   SMASS  =  -3.00    Nose mass-parameter (am)
   estimated Nose-frequenzy (Omega)   =  0.10E-29 period in steps =****** mass=  -0.764E-27a.u.
   SCALEE = 1.0000    scale energy and forces
   NPACO  =    256;   APACO  = 16.0  distance and # of slots for P.C.
   PSTRESS=    0.0 pullay stress

  Mass of Ions in am
   POMASS =  63.55114.82 78.96
  Ionic Valenz
   ZVAL   =  11.00 13.00  6.00
  Atomic Wigner-Seitz radii
   RWIGS  =  -1.00 -1.00 -1.00
  virtual crystal weights 
   VCA    =   1.00  1.00  1.00
   NELECT =     144.0000    total number of electrons
   NUPDOWN=      -1.0000    fix difference up-down

 DOS related values:
   EMIN   =  10.00;   EMAX   =-10.00  energy-range for DOS
   EFERMI =   0.00
   ISMEAR =     0;   SIGMA  =   0.01  broadening in eV -4-tet -1-fermi 0-gaus

 Electronic relaxation 2 (details)
   IALGO  =     53    algorithm
   LDIAG  =      T    sub-space diagonalisation (order eigenvalues)
   LSUBROT=      F    optimize rotation matrix (better conditioning)
   TURBO    =      0    0=normal 1=particle mesh
   IRESTART =      0    0=no restart 2=restart with 2 vectors
   NREBOOT  =      0    no. of reboots
   NMIN     =      0    reboot dimension
   EREF     =   0.00    reference energy to select bands
   IMIX   =      4    mixing-type and parameters
     AMIX     =   0.40;   BMIX     =  1.00
     AMIX_MAG =   1.60;   BMIX_MAG =  1.00
     AMIN     =   0.10
     WC   =   100.;   INIMIX=   1;  MIXPRE=   1;  MAXMIX= -45

 Intra band minimization:
   WEIMIN = 0.0000     energy-eigenvalue tresh-hold
   EBREAK =  0.39E-08  absolut break condition
   DEPER  =   0.30     relativ break condition  

   TIME   =   0.40     timestep for ELM

  volume/ion in A,a.u.               =      24.28       163.86
  Fermi-wavevector in a.u.,A,eV,Ry     =   1.175975  2.222271 18.815737  1.382918
  Thomas-Fermi vector in A             =   2.312347
 
 Write flags
   LWAVE  =      T    write WAVECAR
   LCHARG =      T    write CHGCAR
   LVTOT  =      F    write LOCPOT, total local potential
   LVHAR  =      F    write LOCPOT, Hartree potential only
   LELF   =      F    write electronic localiz. function (ELF)
   LORBIT =     11    0 simple, 1 ext, 2 COOP (PROOUT)


 Dipole corrections
   LMONO  =      F    monopole corrections only (constant potential shift)
   LDIPOL =      F    correct potential (dipole corrections)
   IDIPOL =      0    1-x, 2-y, 3-z, 4-all directions 
   EPSILON=  1.0000000 bulk dielectric constant

 Exchange correlation treatment:
   GGA     =    --    GGA type
   LEXCH   =     8    internal setting for exchange type
   VOSKOWN=      0    Vosko Wilk Nusair interpolation
   EXXOEP  =     0    0=HF, 1=EXX-LHF (local Hartree Fock) 2=EXX OEP
   LHFCALC =     T    Hartree Fock is set to
   LSYMGRAD=     F    symmetrize gradient (conserves proper symmetry)
   PRECFOCK=normal    Normal, Fast or Accurate (Low or Medium for compatibility)
   LRHFCALC=     F    long range Hartree Fock
   LRSCOR  =     F    long range correlation only (use DFT for short range part)
   LTHOMAS =     F    Thomas Fermi screening in HF
   LMODELHF=     F    short range full HF, long range fraction AEXX
   ENCUT4O =  -1.0   cutoff for four orbital integrals eV
   LMAXFOCK=     4    L truncation for augmentation on plane wave grid
   LMAXFOCKAE=  -1    L truncation for all-electron charge restoration on plane wave grid
   NMAXFOCKAE=   1    number of basis functions for all-electron charge restoration
   LFOCKAEDFT=     F  apply the AE augmentation even for DFT
   NKREDX  =     5    reduce k-point grid by
   NKREDY  =     5    reduce k-point grid by
   NKREDZ  =     5    reduce k-point grid by
   SHIFTRED=     F    shift reduced grid of Gamma
   HFKIDENT=     F    idential grid for each k-point
   ODDONLY =     F    use only odd q-grid points
   EVENONLY=     F    use only even q-grid points
   HFALPHA =   -1.0000 decay constant for conv. correction
   MCALPHA =    0.0000 extent of test-charge in conv. correction in multipole expansion
   AEXX    =    0.2500 exact exchange contribution
   HFSCREEN=    0.2000 screening length (either q_TF or 0.3 A-1)
   HFSCREENC=   0.2000 screening length for correlation (either q_TF or 0.3 A-1)
   HFRCUT  =    0.0000 spherical cutoff for potential kernel
   ALDAX   =    0.7500 LDA exchange part
   AGGAX   =    0.7500 GGA exchange part
   ALDAC   =    1.0000 LDA correlation
   AGGAC   =    1.0000 GGA correlation
   NBANDSGWLOW=     1    first orbital included in HF term
   ENCUTFOCK=  -1.0 apply spherical cutoff to Coloumb kernel
 Linear response parameters
   LEPSILON=     F    determine dielectric tensor
   LRPA    =     F    only Hartree local field effects (RPA)
   LNABLA  =     F    use nabla operator in PAW spheres
   LVEL    =     F    velocity operator in full k-point grid
   LINTERFAST=   F  fast interpolation
   KINTER  =     0    interpolate to denser k-point grid
   CSHIFT  =0.1000    complex shift for real part using Kramers Kronig
   OMEGAMAX=  -1.0    maximum frequency
   DEG_THRESHOLD= 0.2000000E-02 threshold for treating states as degnerate
   RTIME   =    0.100 relaxation time in fs

 Orbital magnetization related:
   ORBITALMAG=     F  switch on orbital magnetization
   LCHIMAG   =     F  perturbation theory with respect to B field
   DQ        =  0.001000  dq finite difference perturbation B field



--------------------------------------------------------------------------------------------------------


 Static calculation
 charge density and potential will be updated during run
 non-spin polarized calculation
 Conjugate gradient for all bands (Freysoldt, et al. PRB 79, 241103 (2009))
 perform sub-space diagonalisation
    before iterative eigenvector-optimisation
 modified Broyden-mixing scheme, WC =      100.0
 initial mixing is a Kerker type mixing with AMIX =  0.4000 and BMIX =      1.0000
 Hartree-type preconditioning will be used
 using additional bands          568
 reciprocal scheme for non local part
 use partial core corrections
 no Harris-corrections to forces 
 use gradient corrections 
 use of overlap-Matrix (Vanderbilt PP)
 Gauss-broadening in eV      SIGMA  =   0.01


--------------------------------------------------------------------------------------------------------


  energy-cutoff  :      300.00
  volume of cell :      388.50
      direct lattice vectors                 reciprocal lattice vectors
     5.782400000  0.000000000  0.000000000     0.172938572  0.000000000  0.000000000
     0.000000000  5.782400000  0.000000000     0.000000000  0.172938572  0.000000000
     0.000000000  0.000000000 11.619200000     0.000000000  0.000000000  0.086064445

  length of vectors
     5.782400000  5.782400000 11.619200000     0.172938572  0.172938572  0.086064445


 
 old parameters found on file WAVECAR:
  energy-cutoff  :      300.00
  volume of cell :      388.50
      direct lattice vectors                 reciprocal lattice vectors
     5.782400000  0.000000000  0.000000000     0.172938572  0.000000000  0.000000000
     0.000000000  5.782400000  0.000000000     0.000000000  0.172938572  0.000000000
     0.000000000  0.000000000 11.619200000     0.000000000  0.000000000  0.086064445

  length of vectors

 
 k-points in units of 2pi/SCALE and weight: KPOINTS                                 
   0.00000000  0.00000000  0.00000000       0.002
   0.01729386  0.00000000  0.00000000       0.008
   0.03458771  0.00000000  0.00000000       0.008
   0.05188157  0.00000000  0.00000000       0.008
   0.06917543  0.00000000  0.00000000       0.008
   0.08646929  0.00000000  0.00000000       0.004
   0.01729386  0.01729386  0.00000000       0.008
   0.03458771  0.01729386  0.00000000       0.016
   0.05188157  0.01729386  0.00000000       0.016
   0.06917543  0.01729386  0.00000000       0.016
   0.08646929  0.01729386  0.00000000       0.008
   0.03458771  0.03458771  0.00000000       0.008
   0.05188157  0.03458771  0.00000000       0.016
   0.06917543  0.03458771  0.00000000       0.016
   0.08646929  0.03458771  0.00000000       0.008
   0.05188157  0.05188157  0.00000000       0.008
   0.06917543  0.05188157  0.00000000       0.016
   0.08646929  0.05188157  0.00000000       0.008
   0.06917543  0.06917543  0.00000000       0.008
   0.08646929  0.06917543  0.00000000       0.008
   0.08646929  0.08646929  0.00000000       0.002
   0.00000000  0.00000000  0.01721289       0.004
   0.01729386  0.00000000  0.01721289       0.016
   0.03458771  0.00000000  0.01721289       0.016
   0.05188157  0.00000000  0.01721289       0.016
   0.06917543  0.00000000  0.01721289       0.016
   0.08646929  0.00000000  0.01721289       0.008
   0.01729386  0.01729386  0.01721289       0.016
   0.03458771  0.01729386  0.01721289       0.032
   0.05188157  0.01729386  0.01721289       0.032
   0.06917543  0.01729386  0.01721289       0.032
   0.08646929  0.01729386  0.01721289       0.016
   0.03458771  0.03458771  0.01721289       0.016
   0.05188157  0.03458771  0.01721289       0.032
   0.06917543  0.03458771  0.01721289       0.032
   0.08646929  0.03458771  0.01721289       0.016
   0.05188157  0.05188157  0.01721289       0.016
   0.06917543  0.05188157  0.01721289       0.032
   0.08646929  0.05188157  0.01721289       0.016
   0.06917543  0.06917543  0.01721289       0.016
   0.08646929  0.06917543  0.01721289       0.016
   0.08646929  0.08646929  0.01721289       0.004
   0.00000000  0.00000000  0.03442578       0.004
   0.01729386  0.00000000  0.03442578       0.016
   0.03458771  0.00000000  0.03442578       0.016
   0.05188157  0.00000000  0.03442578       0.016
   0.06917543  0.00000000  0.03442578       0.016
   0.08646929  0.00000000  0.03442578       0.008
   0.01729386  0.01729386  0.03442578       0.016
   0.03458771  0.01729386  0.03442578       0.032
   0.05188157  0.01729386  0.03442578       0.032
   0.06917543  0.01729386  0.03442578       0.032
   0.08646929  0.01729386  0.03442578       0.016
   0.03458771  0.03458771  0.03442578       0.016
   0.05188157  0.03458771  0.03442578       0.032
   0.06917543  0.03458771  0.03442578       0.032
   0.08646929  0.03458771  0.03442578       0.016
   0.05188157  0.05188157  0.03442578       0.016
   0.06917543  0.05188157  0.03442578       0.032
   0.08646929  0.05188157  0.03442578       0.016
   0.06917543  0.06917543  0.03442578       0.016
   0.08646929  0.06917543  0.03442578       0.016
   0.08646929  0.08646929  0.03442578       0.004
 
 k-points in reciprocal lattice and weights: KPOINTS                                 
   0.00000000  0.00000000  0.00000000       0.002
   0.10000000  0.00000000  0.00000000       0.008
   0.20000000  0.00000000  0.00000000       0.008
   0.30000000  0.00000000  0.00000000       0.008
   0.40000000  0.00000000  0.00000000       0.008
   0.50000000  0.00000000  0.00000000       0.004
   0.10000000  0.10000000  0.00000000       0.008
   0.20000000  0.10000000  0.00000000       0.016
   0.30000000  0.10000000  0.00000000       0.016
   0.40000000  0.10000000  0.00000000       0.016
   0.50000000  0.10000000  0.00000000       0.008
   0.20000000  0.20000000  0.00000000       0.008
   0.30000000  0.20000000  0.00000000       0.016
   0.40000000  0.20000000  0.00000000       0.016
   0.50000000  0.20000000  0.00000000       0.008
   0.30000000  0.30000000  0.00000000       0.008
   0.40000000  0.30000000  0.00000000       0.016
   0.50000000  0.30000000  0.00000000       0.008
   0.40000000  0.40000000  0.00000000       0.008
   0.50000000  0.40000000  0.00000000       0.008
   0.50000000  0.50000000  0.00000000       0.002
   0.00000000  0.00000000  0.20000000       0.004
   0.10000000  0.00000000  0.20000000       0.016
   0.20000000  0.00000000  0.20000000       0.016
   0.30000000  0.00000000  0.20000000       0.016
   0.40000000  0.00000000  0.20000000       0.016
   0.50000000  0.00000000  0.20000000       0.008
   0.10000000  0.10000000  0.20000000       0.016
   0.20000000  0.10000000  0.20000000       0.032
   0.30000000  0.10000000  0.20000000       0.032
   0.40000000  0.10000000  0.20000000       0.032
   0.50000000  0.10000000  0.20000000       0.016
   0.20000000  0.20000000  0.20000000       0.016
   0.30000000  0.20000000  0.20000000       0.032
   0.40000000  0.20000000  0.20000000       0.032
   0.50000000  0.20000000  0.20000000       0.016
   0.30000000  0.30000000  0.20000000       0.016
   0.40000000  0.30000000  0.20000000       0.032
   0.50000000  0.30000000  0.20000000       0.016
   0.40000000  0.40000000  0.20000000       0.016
   0.50000000  0.40000000  0.20000000       0.016
   0.50000000  0.50000000  0.20000000       0.004
   0.00000000  0.00000000  0.40000000       0.004
   0.10000000  0.00000000  0.40000000       0.016
   0.20000000  0.00000000  0.40000000       0.016
   0.30000000  0.00000000  0.40000000       0.016
   0.40000000  0.00000000  0.40000000       0.016
   0.50000000  0.00000000  0.40000000       0.008
   0.10000000  0.10000000  0.40000000       0.016
   0.20000000  0.10000000  0.40000000       0.032
   0.30000000  0.10000000  0.40000000       0.032
   0.40000000  0.10000000  0.40000000       0.032
   0.50000000  0.10000000  0.40000000       0.016
   0.20000000  0.20000000  0.40000000       0.016
   0.30000000  0.20000000  0.40000000       0.032
   0.40000000  0.20000000  0.40000000       0.032
   0.50000000  0.20000000  0.40000000       0.016
   0.30000000  0.30000000  0.40000000       0.016
   0.40000000  0.30000000  0.40000000       0.032
   0.50000000  0.30000000  0.40000000       0.016
   0.40000000  0.40000000  0.40000000       0.016
   0.50000000  0.40000000  0.40000000       0.016
   0.50000000  0.50000000  0.40000000       0.004
 
 position of ions in fractional coordinates (direct lattice) 
   0.00000000  0.50000000  0.25000000
   0.00000000  0.00000000  0.00000000
   0.50000000  0.00000000  0.75000000
   0.50000000  0.50000000  0.50000000
   0.00000000  0.50000000  0.75000000
   0.00000000  0.00000000  0.50000000
   0.50000000  0.00000000  0.25000000
   0.50000000  0.50000000  0.00000000
   0.75000000  0.26500000  0.37500000
   0.25000000  0.76500000  0.87500000
   0.25000000  0.73500000  0.37500000
   0.75000000  0.23500000  0.87500000
   0.23500000  0.25000000  0.12500000
   0.76500000  0.75000000  0.12500000
   0.73500000  0.75000000  0.62500000
   0.26500000  0.25000000  0.62500000
 
 position of ions in cartesian coordinates  (Angst):
   0.00000000  2.89120000  2.90480000
   0.00000000  0.00000000  0.00000000
   2.89120000  0.00000000  8.71440000
   2.89120000  2.89120000  5.80960000
   0.00000000  2.89120000  8.71440000
   0.00000000  0.00000000  5.80960000
   2.89120000  0.00000000  2.90480000
   2.89120000  2.89120000  0.00000000
   4.33680000  1.53233600  4.35720000
   1.44560000  4.42353600 10.16680000
   1.44560000  4.25006400  4.35720000
   4.33680000  1.35886400 10.16680000
   1.35886400  1.44560000  1.45240000
   4.42353600  4.33680000  1.45240000
   4.25006400  4.33680000  7.26200000
   1.53233600  1.44560000  7.26200000
 


--------------------------------------------------------------------------------------------------------


 k-point  1 :   0.0000 0.0000 0.0000  plane waves:    4581
 k-point  2 :   0.1000 0.0000 0.0000  plane waves:    4599
 k-point  3 :   0.2000 0.0000 0.0000  plane waves:    4576
 k-point  4 :   0.3000 0.0000 0.0000  plane waves:    4594
 k-point  5 :   0.4000 0.0000 0.0000  plane waves:    4578
 k-point  6 :   0.5000 0.0000 0.0000  plane waves:    4576
 k-point  7 :   0.1000 0.1000 0.0000  plane waves:    4589
 k-point  8 :   0.2000 0.1000 0.0000  plane waves:    4571
 k-point  9 :   0.3000 0.1000 0.0000  plane waves:    4581
 k-point 10 :   0.4000 0.1000 0.0000  plane waves:    4589
 k-point 11 :   0.5000 0.1000 0.0000  plane waves:    4594
 k-point 12 :   0.2000 0.2000 0.0000  plane waves:    4593
 k-point 13 :   0.3000 0.2000 0.0000  plane waves:    4584
 k-point 14 :   0.4000 0.2000 0.0000  plane waves:    4585
 k-point 15 :   0.5000 0.2000 0.0000  plane waves:    4594
 k-point 16 :   0.3000 0.3000 0.0000  plane waves:    4578
 k-point 17 :   0.4000 0.3000 0.0000  plane waves:    4599
 k-point 18 :   0.5000 0.3000 0.0000  plane waves:    4594
 k-point 19 :   0.4000 0.4000 0.0000  plane waves:    4584
 k-point 20 :   0.5000 0.4000 0.0000  plane waves:    4584
 k-point 21 :   0.5000 0.5000 0.0000  plane waves:    4608
 k-point 22 :   0.0000 0.0000 0.2000  plane waves:    4589
 k-point 23 :   0.1000 0.0000 0.2000  plane waves:    4587
 k-point 24 :   0.2000 0.0000 0.2000  plane waves:    4588
 k-point 25 :   0.3000 0.0000 0.2000  plane waves:    4589
 k-point 26 :   0.4000 0.0000 0.2000  plane waves:    4578
 k-point 27 :   0.5000 0.0000 0.2000  plane waves:    4580
 k-point 28 :   0.1000 0.1000 0.2000  plane waves:    4573
 k-point 29 :   0.2000 0.1000 0.2000  plane waves:    4583
 k-point 30 :   0.3000 0.1000 0.2000  plane waves:    4587
 k-point 31 :   0.4000 0.1000 0.2000  plane waves:    4575
 k-point 32 :   0.5000 0.1000 0.2000  plane waves:    4582
 k-point 33 :   0.2000 0.2000 0.2000  plane waves:    4589
 k-point 34 :   0.3000 0.2000 0.2000  plane waves:    4580
 k-point 35 :   0.4000 0.2000 0.2000  plane waves:    4579
 k-point 36 :   0.5000 0.2000 0.2000  plane waves:    4582
 k-point 37 :   0.3000 0.3000 0.2000  plane waves:    4587
 k-point 38 :   0.4000 0.3000 0.2000  plane waves:    4597
 k-point 39 :   0.5000 0.3000 0.2000  plane waves:    4598
 k-point 40 :   0.4000 0.4000 0.2000  plane waves:    4598
 k-point 41 :   0.5000 0.4000 0.2000  plane waves:    4604
 k-point 42 :   0.5000 0.5000 0.2000  plane waves:    4580
 k-point 43 :   0.0000 0.0000 0.4000  plane waves:    4589
 k-point 44 :   0.1000 0.0000 0.4000  plane waves:    4576
 k-point 45 :   0.2000 0.0000 0.4000  plane waves:    4588
 k-point 46 :   0.3000 0.0000 0.4000  plane waves:    4573
 k-point 47 :   0.4000 0.0000 0.4000  plane waves:    4576
 k-point 48 :   0.5000 0.0000 0.4000  plane waves:    4578
 k-point 49 :   0.1000 0.1000 0.4000  plane waves:    4585
 k-point 50 :   0.2000 0.1000 0.4000  plane waves:    4586
 k-point 51 :   0.3000 0.1000 0.4000  plane waves:    4574
 k-point 52 :   0.4000 0.1000 0.4000  plane waves:    4573
 k-point 53 :   0.5000 0.1000 0.4000  plane waves:    4570
 k-point 54 :   0.2000 0.2000 0.4000  plane waves:    4569
 k-point 55 :   0.3000 0.2000 0.4000  plane waves:    4575
 k-point 56 :   0.4000 0.2000 0.4000  plane waves:    4584
 k-point 57 :   0.5000 0.2000 0.4000  plane waves:    4576
 k-point 58 :   0.3000 0.3000 0.4000  plane waves:    4579
 k-point 59 :   0.4000 0.3000 0.4000  plane waves:    4596
 k-point 60 :   0.5000 0.3000 0.4000  plane waves:    4596
 k-point 61 :   0.4000 0.4000 0.4000  plane waves:    4602
 k-point 62 :   0.5000 0.4000 0.4000  plane waves:    4610
 k-point 63 :   0.5000 0.5000 0.4000  plane waves:    4608

 maximum and minimum number of plane-waves per node :       594      548

 maximum number of plane-waves:      4610
 maximum index in each direction: 
   IXMAX=    8   IYMAX=    8   IZMAX=   16
   IXMIN=   -8   IYMIN=   -8   IZMIN=  -16

 NGX is ok and might be reduce to  34
 NGY is ok and might be reduce to  34
 NGZ is ok and might be reduce to  66

 parallel 3D FFT for wavefunctions:
    minimum data exchange during FFTs selected (reduces bandwidth)
 parallel 3D FFT for charge:
    minimum data exchange during FFTs selected (reduces bandwidth)


 FFT grid for exact exchange (Hartree Fock) 
  NGX = 28; NGY = 28; NGZ = 50

 
 Radii for the augmentation spheres in the non-local exchange
 for species   1 augmentation radius   1.218 (default was   1.005)
       energy cutoff for augmentation   1200.0
 for species   2 augmentation radius   1.347 (default was   1.077)
       energy cutoff for augmentation   1200.0
 for species   3 augmentation radius   1.152 (default was   1.081)
       energy cutoff for augmentation   1200.0

 real space projection operators:
  total allocation   :       2421.88 KBytes
  max/ min on nodes  :        372.27        230.47

 Maximum index for augmentation-charges in exchange          198
  SETUP_FOCK is finished

 total amount of memory used by VASP on root node   384544. kBytes
========================================================================

   base      :      30000. kBytes
   nonl-proj :      17801. kBytes
   fftplans  :       4392. kBytes
   grid      :       2462. kBytes
   one-center:         31. kBytes
   HF        :        129. kBytes
   nonlr-proj:        719. kBytes
   wavefun   :     329010. kBytes
 
     INWAV:  cpu time   19.5330: real time   19.5241
 Broyden mixing: mesh for mixing (old mesh)
   NGX = 17   NGY = 17   NGZ = 33
  (NGX  = 72   NGY  = 72   NGZ  =140)
  gives a total of   9537 points

 charge density for first step will be calculated from the start-wavefunctions


--------------------------------------------------------------------------------------------------------


 Maximum index for augmentation-charges         3586 (set IRDMAX)


--------------------------------------------------------------------------------------------------------


 initial charge from wavefunction
 First call to EWALD:  gamma=   0.243
 Maximum number of real-space cells 3x 3x 2
 Maximum number of reciprocal cells 2x 2x 4

 FEWALD executed in parallel
    FEWALD:  cpu time    0.0060: real time    0.0020


----------------------------------------- Iteration    1(   1)  ---------------------------------------


    POTLOK:  cpu time    0.3210: real time    0.1072
    SETDIJ:  cpu time    0.4139: real time    0.1372
    TRIAL :  cpu time  867.5711: real time  290.0705
    CORREC:  cpu time    0.0070: real time    0.0021
    CHARGE:  cpu time    2.3047: real time    0.7680
    --------------------------------------------
      LOOP:  cpu time  871.1426: real time  291.2606

 eigenvalue-minimisations  :     0
 total energy-change (2. order) :-0.8247592E+02  (-0.6126090E+00)
 number of electron     144.0000002 magnetization 
 augmentation part       48.7420419 magnetization 

 Free energy of the ion-electron system (eV)
  ---------------------------------------------------
  alpha Z        PSCENC =       448.81149666
  Ewald energy   TEWEN  =     -9390.25499164
  -Hartree energ DENC   =     -4452.73506046
  -exchange      EXHF   =       319.52890027
  -V(xc)+E(xc)   XCENC  =       249.64926391
  PAW double counting   =     10416.54408977   -10818.71470695
  entropy T*S    EENTRO =        -0.00000000
  eigenvalues    EBANDS =      -742.58521599
  atomic energy  EATOM  =     13887.28030762
  ---------------------------------------------------
  free energy    TOTEN  =       -82.47591722 eV

  energy without entropy =      -82.47591722  energy(sigma->0) =      -82.47591722
  exchange ACFDT corr.  =        -0.00000222  see jH, gK, PRB 81, 115126


--------------------------------------------------------------------------------------------------------




----------------------------------------- Iteration    1(   2)  ---------------------------------------


    POTLOK:  cpu time    0.3020: real time    0.1008
    SETDIJ:  cpu time    0.4079: real time    0.1359
    TRIAL :  cpu time  883.2597: real time  295.6605
    CORREC:  cpu time    0.0060: real time    0.0020
    CHARGE:  cpu time    2.2587: real time    0.7528
    --------------------------------------------
      LOOP:  cpu time  886.2433: real time  296.6554

 eigenvalue-minimisations  :     0
 total energy-change (2. order) :-0.4026648E+00  (-0.2402531E+00)
 number of electron     144.0000002 magnetization 
 augmentation part       48.9601784 magnetization 

 Free energy of the ion-electron system (eV)
  ---------------------------------------------------
  alpha Z        PSCENC =       448.81149666
  Ewald energy   TEWEN  =     -9390.25499164
  -Hartree energ DENC   =     -4480.96013870
  -exchange      EXHF   =       320.51201652
  -V(xc)+E(xc)   XCENC  =       250.61641679
  PAW double counting   =     10463.20405058   -10873.07779730
  entropy T*S    EENTRO =        -0.00000000
  eigenvalues    EBANDS =      -709.00994257
  atomic energy  EATOM  =     13887.28030762
  ---------------------------------------------------
  free energy    TOTEN  =       -82.87858205 eV

  energy without entropy =      -82.87858205  energy(sigma->0) =      -82.87858205
  exchange ACFDT corr.  =         0.00000000  see jH, gK, PRB 81, 115126


--------------------------------------------------------------------------------------------------------




----------------------------------------- Iteration    1(   3)  ---------------------------------------


    POTLOK:  cpu time    0.3020: real time    0.1007
    SETDIJ:  cpu time    0.5279: real time    0.1756
    TRIAL :  cpu time  910.9365: real time  305.9815
[...]
     445.186       0.000      -0.000
       0.000     445.186      -0.000
      -0.000      -0.000     445.138
  --------------------------------------------------------------------------------------
 plasma frequency squared  (valence only):     511.085

  frequency dependent IMAGINARY DIELECTRIC FUNCTION (independent particle, no local field effects)
     E(ev)      X         Y         Z        XY        YZ        ZX
  --------------------------------------------------------------------------------------
    0.000000    0.000000    0.000000    0.000000    0.000000    0.000000    0.000000
    1.037090    0.362578    0.362578    0.350453    0.000000    0.000000   -0.000000
    2.074179    0.891250    0.891250    0.738579    0.000000    0.000000   -0.000000
    3.111269    4.391560    4.391560    4.567477    0.000000   -0.000000    0.000000
    4.148359    4.129594    4.129594    3.759374    0.000000    0.000000    0.000000
    5.185449    6.575723    6.575723    6.238761    0.000000   -0.000000   -0.000000
    6.222538    7.878654    7.878654    7.084483    0.000000   -0.000000   -0.000000
    7.259628    7.689214    7.689214    8.201242    0.000000   -0.000000    0.000000
    8.296718    5.575663    5.575663    5.626905    0.000000    0.000000    0.000000
    9.333808    4.307942    4.307942    4.415346    0.000000    0.000000    0.000000
   10.370897    2.807921    2.807921    3.055479    0.000000   -0.000000    0.000000
   11.407987    1.850784    1.850784    2.024687    0.000000    0.000000    0.000000
   12.445077    1.247755    1.247755    1.230275    0.000000    0.000000   -0.000000
   13.482166    1.000568    1.000568    0.917057    0.000000   -0.000000   -0.000000
   14.519256    0.712649    0.712649    0.748355    0.000000   -0.000000    0.000000
   15.556346    0.593294    0.593294    0.589222    0.000000   -0.000000    0.000000
   16.593436    0.638085    0.638085    0.616284    0.000000   -0.000000    0.000000
   17.630525    0.525053    0.525053    0.525694    0.000000   -0.000000   -0.000000
   18.667615    0.405482    0.405482    0.406566    0.000000    0.000000    0.000000
   19.704705    0.430288    0.430288    0.381018    0.000000    0.000000    0.000000
   20.741795    0.380949    0.380949    0.402531    0.000000    0.000000   -0.000000
   21.778884    0.293633    0.293633    0.333812    0.000000   -0.000000    0.000000
   22.815974    0.343344    0.343344    0.324496    0.000000    0.000000   -0.000000
   23.853064    0.273659    0.273659    0.267394    0.000000   -0.000000   -0.000000
   24.890153    0.224484    0.224484    0.217540    0.000000   -0.000000   -0.000000
   25.927243    0.196458    0.196458    0.197233    0.000000    0.000000   -0.000000
   26.964333    0.196863    0.196863    0.194268    0.000000    0.000000    0.000000
   28.001423    0.184216    0.184216    0.183516    0.000000    0.000000   -0.000000
   29.038512    0.178978    0.178978    0.177752    0.000000    0.000000    0.000000
   30.075602    0.197402    0.197402    0.192797    0.000000    0.000000    0.000000
   31.112692    0.194836    0.194836    0.195071    0.000000   -0.000000    0.000000
   32.149782    0.172312    0.172312    0.170352    0.000000    0.000000   -0.000000
   33.186871    0.161352    0.161352    0.165932    0.000000   -0.000000   -0.000000
   34.223961    0.156684    0.156684    0.158174    0.000000   -0.000000    0.000000
   35.261051    0.148449    0.148449    0.148496    0.000000   -0.000000    0.000000
   36.298140    0.131213    0.131213    0.128084    0.000000   -0.000000   -0.000000
   37.335230    0.131314    0.131314    0.132046    0.000000    0.000000   -0.000000
   38.372320    0.129714    0.129714    0.134098    0.000000    0.000000    0.000000
   39.409410    0.124536    0.124536    0.124545    0.000000   -0.000000    0.000000
   40.446499    0.130042    0.130042    0.126586    0.000000    0.000000    0.000000
   41.483589    0.122102    0.122102    0.121494    0.000000   -0.000000   -0.000000
   42.520679    0.128028    0.128028    0.130503    0.000000    0.000000    0.000000
   43.557769    0.138617    0.138617    0.134246    0.000000   -0.000000   -0.000000
   44.594858    0.125048    0.125048    0.123028    0.000000    0.000000   -0.000000
   45.631948    0.131925    0.131925    0.127824    0.000000   -0.000000   -0.000000
   46.669038    0.125779    0.125779    0.125149    0.000000   -0.000000   -0.000000
   47.706127    0.122237    0.122237    0.119428    0.000000   -0.000000   -0.000000
   48.743217    0.115072    0.115072    0.116417    0.000000    0.000000   -0.000000
   49.780307    0.109093    0.109093    0.110977    0.000000   -0.000000    0.000000
   50.817397    0.119814    0.119814    0.117464    0.000000    0.000000    0.000000
   51.854486    0.102733    0.102733    0.104372    0.000000   -0.000000   -0.000000
   52.891576    0.096805    0.096805    0.100429    0.000000    0.000000    0.000000
   53.928666    0.094588    0.094588    0.097428    0.000000   -0.000000    0.000000
   54.965756    0.093357    0.093357    0.094966    0.000000    0.000000    0.000000
   56.002845    0.086439    0.086439    0.088316    0.000000   -0.000000   -0.000000
   57.039935    0.080599    0.080599    0.078995    0.000000    0.000000   -0.000000
   58.077025    0.074400    0.074400    0.073701    0.000000   -0.000000   -0.000000
   59.114114    0.072906    0.072906    0.073792    0.000000   -0.000000    0.000000
   60.151204    0.069725    0.069725    0.069571    0.000000   -0.000000   -0.000000
   61.188294    0.065675    0.065675    0.063762    0.000000   -0.000000    0.000000
   62.225384    0.062974    0.062974    0.060592    0.000000   -0.000000    0.000000
   63.262473    0.060913    0.060913    0.059665    0.000000   -0.000000    0.000000
   64.299563    0.059580    0.059580    0.059216    0.000000    0.000000   -0.000000
   65.336653    0.056824    0.056824    0.056897    0.000000    0.000000   -0.000000
   66.373743    0.048364    0.048364    0.048229    0.000000    0.000000   -0.000000
   67.410832    0.048754    0.048754    0.048633    0.000000   -0.000000   -0.000000
   68.447922    0.046695    0.046695    0.048186    0.000000   -0.000000   -0.000000
   69.485012    0.044884    0.044884    0.046214    0.000000    0.000000    0.000000
   70.522101    0.040988    0.040988    0.040981    0.000000   -0.000000    0.000000
   71.559191    0.034289    0.034289    0.033828    0.000000    0.000000   -0.000000
   72.596281    0.029075    0.029075    0.027790    0.000000   -0.000000    0.000000
   73.633371    0.025339    0.025339    0.026113    0.000000   -0.000000    0.000000
   74.670460    0.024331    0.024331    0.026142    0.000000   -0.000000    0.000000
   75.707550    0.024949    0.024949    0.025080    0.000000   -0.000000   -0.000000
   76.744640    0.028701    0.028701    0.028105    0.000000   -0.000000   -0.000000
   77.781729    0.027923    0.027923    0.028536    0.000000    0.000000   -0.000000
   78.818819    0.029829    0.029829    0.027485    0.000000    0.000000   -0.000000
   79.855909    0.029168    0.029168    0.028316    0.000000    0.000000   -0.000000
   80.892999    0.033707    0.033707    0.033500    0.000000   -0.000000   -0.000000
   81.930088    0.035287    0.035287    0.035492    0.000000   -0.000000    0.000000
   82.967178    0.038613    0.038613    0.037572    0.000000    0.000000   -0.000000
   84.004268    0.048540    0.048540    0.048570    0.000000   -0.000000    0.000000
   85.041358    0.061002    0.061002    0.061848    0.000000   -0.000000   -0.000000
   86.078447    0.008485    0.008485    0.009743    0.000000    0.000000   -0.000000
   87.115537    0.001288    0.001288    0.001298    0.000000   -0.000000   -0.000000
   88.152627    0.000720    0.000720    0.000721    0.000000   -0.000000   -0.000000
   89.189716    0.000510    0.000510    0.000509    0.000000   -0.000000   -0.000000
   90.226806    0.000400    0.000400    0.000400    0.000000   -0.000000   -0.000000
   91.263896    0.000333    0.000333    0.000333    0.000000   -0.000000   -0.000000
   92.300986    0.000288    0.000288    0.000288    0.000000   -0.000000   -0.000000
   93.338075    0.000255    0.000255    0.000254    0.000000   -0.000000   -0.000000
   94.375165    0.000229    0.000229    0.000229    0.000000   -0.000000   -0.000000
   95.412255    0.000209    0.000209    0.000208    0.000000   -0.000000   -0.000000
   96.449345    0.000192    0.000192    0.000192    0.000000   -0.000000   -0.000000
   97.486434    0.000178    0.000178    0.000178    0.000000   -0.000000   -0.000000
   98.523524    0.000166    0.000166    0.000166    0.000000   -0.000000   -0.000000
   99.560614    0.000155    0.000155    0.000155    0.000000   -0.000000   -0.000000
  100.597703    0.000146    0.000146    0.000146    0.000000   -0.000000   -0.000000
  101.634793    0.000138    0.000138    0.000138    0.000000   -0.000000   -0.000000
  102.671883    0.000131    0.000131    0.000131    0.000000   -0.000000   -0.000000

  frequency dependent      REAL DIELECTRIC FUNCTION (independent particle, no local field effects)
     E(ev)      X         Y         Z        XY        YZ        ZX
  --------------------------------------------------------------------------------------
    0.000000    6.909141    6.909141    6.822196    0.000000    0.000000   -0.000000
    1.037090    7.569720    7.569720    7.460536    0.000000    0.000000   -0.000000
    2.074179    7.643178    7.643178    7.600286    0.000000    0.000000    0.000000
    3.111269    7.641148    7.641148    7.654296    0.000000    0.000000   -0.000000
    4.148359    6.396564    6.396564    7.107591    0.000000   -0.000000    0.000000
    5.185449    6.507229    6.507229    4.953162    0.000000   -0.000000    0.000000
    6.222538    3.604557    3.604557    4.511126    0.000000   -0.000000   -0.000000
    7.259628    0.466028    0.466028    0.457512    0.000000    0.000000   -0.000000
    8.296718   -1.501868   -1.501868   -1.652095    0.000000    0.000000   -0.000000
    9.333808   -1.300814   -1.300814   -1.069067    0.000000   -0.000000    0.000000
   10.370897   -1.892748   -1.892748   -1.635862    0.000000    0.000000   -0.000000
   11.407987   -1.308533   -1.308533   -1.486235    0.000000    0.000000    0.000000
   12.445077   -0.950248   -0.950248   -1.022985    0.000000    0.000000   -0.000000
   13.482166   -0.626876   -0.626876   -0.633503    0.000000    0.000000    0.000000
   14.519256   -0.339767   -0.339767   -0.345670    0.000000   -0.000000   -0.000000
   15.556346   -0.063337   -0.063337   -0.097672    0.000000   -0.000000   -0.000000
   16.593436    0.098803    0.098803    0.110645    0.000000   -0.000000    0.000000
   17.630525    0.096607    0.096607    0.083124    0.000000   -0.000000   -0.000000
   18.667615    0.238068    0.238068    0.214900    0.000000    0.000000   -0.000000
   19.704705    0.286826    0.286826    0.298629    0.000000    0.000000    0.000000
   20.741795    0.356080    0.356080    0.409296    0.000000    0.000000    0.000000
   21.778884    0.453436    0.453436    0.427252    0.000000   -0.000000   -0.000000
   22.815974    0.476154    0.476154    0.466490    0.000000    0.000000   -0.000000
   23.853064    0.467579    0.467579    0.467980    0.000000    0.000000    0.000000
   24.890153    0.528288    0.528288    0.525495    0.000000    0.000000    0.000000
   25.927243    0.579036    0.579036    0.584107    0.000000   -0.000000    0.000000
   26.964333    0.636824    0.636824    0.637873    0.000000    0.000000    0.000000
   28.001423    0.648519    0.648519    0.647125    0.000000    0.000000    0.000000
   29.038512    0.706629    0.706629    0.702629    0.000000   -0.000000    0.000000
   30.075602    0.702994    0.702994    0.710214    0.000000    0.000000   -0.000000
   31.112692    0.712210    0.712210    0.714201    0.000000   -0.000000   -0.000000
   32.149782    0.725972    0.725972    0.735119    0.000000   -0.000000    0.000000
   33.186871    0.743963    0.743963    0.744601    0.000000   -0.000000    0.000000
   34.223961    0.760842    0.760842    0.760065    0.000000    0.000000    0.000000
   35.261051    0.761462    0.761462    0.762376    0.000000    0.000000   -0.000000
   36.298140    0.789546    0.789546    0.784579    0.000000    0.000000   -0.000000
   37.335230    0.805564    0.805564    0.806909    0.000000    0.000000    0.000000
   38.372320    0.814566    0.814566    0.815224    0.000000    0.000000    0.000000
   39.409410    0.814061    0.814061    0.807103    0.000000   -0.000000    0.000000
   40.446499    0.827781    0.827781    0.827582    0.000000    0.000000   -0.000000
   41.483589    0.830944    0.830944    0.832073    0.000000   -0.000000   -0.000000
   42.520679    0.851898    0.851898    0.850607    0.000000    0.000000   -0.000000
   43.557769    0.851524    0.851524    0.850721    0.000000    0.000000    0.000000
   44.594858    0.843319    0.843319    0.842928    0.000000   -0.000000   -0.000000
   45.631948    0.851799    0.851799    0.850660    0.000000   -0.000000    0.000000
   46.669038    0.848076    0.848076    0.848025    0.000000    0.000000   -0.000000
   47.706127    0.845971    0.845971    0.850064    0.000000    0.000000   -0.000000
   48.743217    0.847972    0.847972    0.850224    0.000000   -0.000000    0.000000
   49.780307    0.853343    0.853343    0.853804    0.000000    0.000000    0.000000
   50.817397    0.857769    0.857769    0.856558    0.000000    0.000000    0.000000
   51.854486    0.848375    0.848375    0.848134    0.000000    0.000000    0.000000
   52.891576    0.854510    0.854510    0.857120    0.000000   -0.000000   -0.000000
   53.928666    0.858800    0.858800    0.858354    0.000000   -0.000000   -0.000000
   54.965756    0.859116    0.859116    0.856075    0.000000   -0.000000   -0.000000
   56.002845    0.855491    0.855491    0.855303    0.000000    0.000000   -0.000000
   57.039935    0.862878    0.862878    0.859293    0.000000    0.000000   -0.000000
   58.077025    0.864009    0.864009    0.865170    0.000000   -0.000000   -0.000000
   59.114114    0.871660    0.871660    0.872811    0.000000    0.000000   -0.000000
   60.151204    0.870117    0.870117    0.868904    0.000000    0.000000    0.000000
   61.188294    0.873311    0.873311    0.871831    0.000000   -0.000000    0.000000
   62.225384    0.878108    0.878108    0.878194    0.000000    0.000000    0.000000
   63.262473    0.879136    0.879136    0.880944    0.000000    0.000000   -0.000000
   64.299563    0.879446    0.879446    0.880133    0.000000   -0.000000   -0.000000
   65.336653    0.877809    0.877809    0.879838    0.000000   -0.000000   -0.000000
   66.373743    0.882588    0.882588    0.882589    0.000000    0.000000    0.000000
   67.410832    0.887299    0.887299    0.887586    0.000000    0.000000    0.000000
   68.447922    0.887899    0.887899    0.889821    0.000000    0.000000    0.000000
   69.485012    0.888776    0.888776    0.888329    0.000000    0.000000    0.000000
   70.522101    0.887847    0.887847    0.886921    0.000000   -0.000000   -0.000000
   71.559191    0.890489    0.890489    0.889820    0.000000   -0.000000   -0.000000
   72.596281    0.893252    0.893252    0.894131    0.000000   -0.000000    0.000000
   73.633371    0.900538    0.900538    0.901721    0.000000   -0.000000   -0.000000
   74.670460    0.907595    0.907595    0.906842    0.000000    0.000000   -0.000000
   75.707550    0.913579    0.913579    0.913668    0.000000   -0.000000   -0.000000
   76.744640    0.914848    0.914848    0.914927    0.000000    0.000000   -0.000000
   77.781729    0.918092    0.918092    0.916053    0.000000    0.000000    0.000000
   78.818819    0.920626    0.920626    0.919504    0.000000    0.000000   -0.000000
   79.855909    0.921883    0.921883    0.922875    0.000000    0.000000    0.000000
   80.892999    0.925323    0.925323    0.925492    0.000000    0.000000    0.000000
   81.930088    0.924207    0.924207    0.923017    0.000000    0.000000    0.000000
   82.967178    0.921360    0.921360    0.923038    0.000000   -0.000000   -0.000000
   84.004268    0.922465    0.922465    0.922708    0.000000   -0.000000    0.000000
   85.041358    0.894160    0.894160    0.894214    0.000000    0.000000   -0.000000
   86.078447    0.876910    0.876910    0.877642    0.000000    0.000000    0.000000
   87.115537    0.902380    0.902380    0.902374    0.000000    0.000000    0.000000
   88.152627    0.912176    0.912176    0.912204    0.000000    0.000000    0.000000
   89.189716    0.918410    0.918410    0.918439    0.000000    0.000000    0.000000
   90.226806    0.923075    0.923075    0.923101    0.000000    0.000000    0.000000
   91.263896    0.926854    0.926854    0.926878    0.000000    0.000000    0.000000
   92.300986    0.930061    0.930061    0.930082    0.000000    0.000000    0.000000
   93.338075    0.932865    0.932865    0.932883    0.000000    0.000000    0.000000
   94.375165    0.935366    0.935366    0.935383    0.000000    0.000000    0.000000
   95.412255    0.937631    0.937631    0.937646    0.000000    0.000000    0.000000
   96.449345    0.939705    0.939705    0.939719    0.000000    0.000000    0.000000
   97.486434    0.941621    0.941621    0.941633    0.000000    0.000000    0.000000
   98.523524    0.943402    0.943402    0.943413    0.000000    0.000000    0.000000
   99.560614    0.945067    0.945067    0.945078    0.000000    0.000000    0.000000
  100.597703    0.946630    0.946630    0.946640    0.000000    0.000000    0.000000
  101.634793    0.948104    0.948104    0.948114    0.000000    0.000000    0.000000
  102.671883    0.949498    0.949498    0.949507    0.000000    0.000000    0.000000
 
 The outermost node in the dielectric function lies at epsilon=  16.1


--------------------------------------------------------------------------------------------------------


    OPTICS:  cpu time    9.4956: real time    5.7580
    4ORBIT:  cpu time    0.0000: real time    0.0000
 


 total charge     
 
# of ion     s       p       d       tot
----------------------------------------
  1        0.318   0.298   9.381   9.997
  2        0.318   0.298   9.380   9.997
  3        0.318   0.298   9.381   9.997
  4        0.318   0.298   9.380   9.997
  5        0.814   0.725   9.931  11.470
  6        0.814   0.725   9.931  11.470
  7        0.814   0.725   9.931  11.470
  8        0.814   0.725   9.931  11.470
  9        1.446   2.431   0.038   3.916
 10        1.446   2.431   0.038   3.916
 11        1.446   2.432   0.039   3.916
 12        1.446   2.432   0.039   3.916
 13        1.446   2.431   0.039   3.916
 14        1.446   2.431   0.039   3.915
 15        1.446   2.431   0.039   3.916
 16        1.446   2.431   0.039   3.915
------------------------------------------------
tot       16.094  23.544  77.556 117.194
 

 total amount of memory used by VASP on root node   385435. kBytes
========================================================================

   base      :      30000. kBytes
   nonl-proj :      17801. kBytes
   fftplans  :       4392. kBytes
   grid      :       2462. kBytes
   one-center:         31. kBytes
   HF        :        129. kBytes
   nonlr-proj:       1610. kBytes
   wavefun   :     329010. kBytes
 
  
  
 General timing and accounting informations for this job:
 ========================================================
  
                  Total CPU time used (sec):    18157.908
                            User time (sec):    17847.378
                          System time (sec):      310.531
                         Elapsed time (sec):     6187.218
  
                   Maximum memory used (kb):     1617720.
                   Average memory used (kb):           0.
  
                          Minor page faults:        36498
                          Major page faults:            0
                 Voluntary context switches:       127001
